 Entering Gaussian System, Link 0=g16
 Input=/home/jramos/Programacion/GITHUB_REPO_DIR/topology/examples/58-typing_gas_with_chiral_centers/G16/chiral_with_trees.gjf
 Output=/home/jramos/Programacion/GITHUB_REPO_DIR/topology/examples/58-typing_gas_with_chiral_centers/G16/chiral_with_trees.log
 Initial command:
 /opt/g16/l1.exe "/scratch-global/Gau-246439.inp" -scrdir="/scratch-global/"
 Entering Link 1 = /opt/g16/l1.exe PID=    246441.
  
 Copyright (c) 1988,1990,1992,1993,1995,1998,2003,2009,2016,
            Gaussian, Inc.  All Rights Reserved.
  
 This is part of the Gaussian(R) 16 program.  It is based on
 the Gaussian(R) 09 system (copyright 2009, Gaussian, Inc.),
 the Gaussian(R) 03 system (copyright 2003, Gaussian, Inc.),
 the Gaussian(R) 98 system (copyright 1998, Gaussian, Inc.),
 the Gaussian(R) 94 system (copyright 1995, Gaussian, Inc.),
 the Gaussian 92(TM) system (copyright 1992, Gaussian, Inc.),
 the Gaussian 90(TM) system (copyright 1990, Gaussian, Inc.),
 the Gaussian 88(TM) system (copyright 1988, Gaussian, Inc.),
 the Gaussian 86(TM) system (copyright 1986, Carnegie Mellon
 University), and the Gaussian 82(TM) system (copyright 1983,
 Carnegie Mellon University). Gaussian is a federally registered
 trademark of Gaussian, Inc.
  
 This software contains proprietary and confidential information,
 including trade secrets, belonging to Gaussian, Inc.
  
 This software is provided under written license and may be
 used, copied, transmitted, or stored only in accord with that
 written license.
  
 The following legend is applicable only to US Government
 contracts under FAR:
  
                    RESTRICTED RIGHTS LEGEND
  
 Use, reproduction and disclosure by the US Government is
 subject to restrictions as set forth in subparagraphs (a)
 and (c) of the Commercial Computer Software - Restricted
 Rights clause in FAR 52.227-19.
  
 Gaussian, Inc.
 340 Quinnipiac St., Bldg. 40, Wallingford CT 06492
  
  
 ---------------------------------------------------------------
 Warning -- This program may not be used in any manner that
 competes with the business of Gaussian, Inc. or will provide
 assistance to any competitor of Gaussian, Inc.  The licensee
 of this program is prohibited from giving any competitor of
 Gaussian, Inc. access to this program.  By using this program,
 the user acknowledges that Gaussian, Inc. is engaged in the
 business of creating and licensing software in the field of
 computational chemistry and represents and warrants to the
 licensee that it is not a competitor of Gaussian, Inc. and that
 it will not use this program in any manner prohibited above.
 ---------------------------------------------------------------
  

 Cite this work as:
 Gaussian 16, Revision A.03,
 M. J. Frisch, G. W. Trucks, H. B. Schlegel, G. E. Scuseria, 
 M. A. Robb, J. R. Cheeseman, G. Scalmani, V. Barone, 
 G. A. Petersson, H. Nakatsuji, X. Li, M. Caricato, A. V. Marenich, 
 J. Bloino, B. G. Janesko, R. Gomperts, B. Mennucci, H. P. Hratchian, 
 J. V. Ortiz, A. F. Izmaylov, J. L. Sonnenberg, D. Williams-Young, 
 F. Ding, F. Lipparini, F. Egidi, J. Goings, B. Peng, A. Petrone, 
 T. Henderson, D. Ranasinghe, V. G. Zakrzewski, J. Gao, N. Rega, 
 G. Zheng, W. Liang, M. Hada, M. Ehara, K. Toyota, R. Fukuda, 
 J. Hasegawa, M. Ishida, T. Nakajima, Y. Honda, O. Kitao, H. Nakai, 
 T. Vreven, K. Throssell, J. A. Montgomery, Jr., J. E. Peralta, 
 F. Ogliaro, M. J. Bearpark, J. J. Heyd, E. N. Brothers, K. N. Kudin, 
 V. N. Staroverov, T. A. Keith, R. Kobayashi, J. Normand, 
 K. Raghavachari, A. P. Rendell, J. C. Burant, S. S. Iyengar, 
 J. Tomasi, M. Cossi, J. M. Millam, M. Klene, C. Adamo, R. Cammi, 
 J. W. Ochterski, R. L. Martin, K. Morokuma, O. Farkas, 
 J. B. Foresman, and D. J. Fox, Gaussian, Inc., Wallingford CT, 2016.
 
 ******************************************
 Gaussian 16:  ES64L-G16RevA.03 25-Dec-2016
                17-Sep-2025 
 ******************************************
 %chk=chiral_with_trees.chk
 --------------------------------
 # opt hf/3-21g geom=connectivity
 --------------------------------
 1/18=20,19=15,38=1,57=2/1,3;
 2/9=110,12=2,17=6,18=5,40=1/2;
 3/5=5,11=9,25=1,30=1,71=1/1,2,3;
 4//1;
 5/5=2,38=5/2;
 6/7=2,8=2,9=2,10=2,28=1/1;
 7//1,2,3,16;
 1/18=20,19=15/3(2);
 2/9=110/2;
 99//99;
 2/9=110/2;
 3/5=5,11=9,25=1,30=1,71=1/1,2,3;
 4/5=5,16=3,69=1/1;
 5/5=2,38=5/2;
 7//1,2,3,16;
 1/18=20,19=15/3(-5);
 2/9=110/2;
 6/7=2,8=2,9=2,10=2,19=2,28=1/1;
 99/9=1/99;
 -------------------
 Title Card Required
 -------------------
 Symbolic Z-matrix:
 Charge =  0 Multiplicity = 1
 C                     0.82244  -0.54004  -0.2895 
 H                     0.88267  -0.28344  -1.34362 
 C                     1.58323  -1.866    -0.07334 
 H                     1.56386  -2.14234   0.97659 
 H                     1.13197  -2.67058  -0.64433 
 H                     2.61933  -1.77145  -0.3804 
 C                     1.48592   0.59792   0.53626 
 H                     0.96955   0.70235   1.48561 
 C                     1.52337   1.95708  -0.19391 
 H                     2.09449   1.87133  -1.1125 
 H                     0.52953   2.30183  -0.44738 
 H                     1.99556   2.71242   0.42562 
 C                    -0.66412  -0.75612   0.07481 
 H                    -0.72488  -1.03402   1.12437 
 H                    -1.03633  -1.60091  -0.49919 
 C                    -1.59299   0.44587  -0.18044 
 H                    -1.30222   1.27856   0.44891 
 H                    -1.49345   0.76689  -1.21283 
 C                    -3.06522   0.08832   0.10574 
 H                    -3.18764  -0.22392   1.13765 
 H                    -3.71471   0.93903  -0.06939 
 H                    -3.39187  -0.72464  -0.53409 
 Cl                    3.14402   0.14191   0.91087 
 

 GradGradGradGradGradGradGradGradGradGradGradGradGradGradGradGradGradGrad
 Berny optimization.
 Initialization pass.
                           ----------------------------
                           !    Initial Parameters    !
                           ! (Angstroms and Degrees)  !
 --------------------------                            --------------------------
 ! Name  Definition              Value          Derivative Info.                !
 --------------------------------------------------------------------------------
 ! R1    R(1,2)                  1.0866         estimate D2E/DX2                !
 ! R2    R(1,3)                  1.5439         estimate D2E/DX2                !
 ! R3    R(1,7)                  1.5547         estimate D2E/DX2                !
 ! R4    R(1,13)                 1.5457         estimate D2E/DX2                !
 ! R5    R(3,4)                  1.0859         estimate D2E/DX2                !
 ! R6    R(3,5)                  1.0849         estimate D2E/DX2                !
 ! R7    R(3,6)                  1.0848         estimate D2E/DX2                !
 ! R8    R(7,8)                  1.0857         estimate D2E/DX2                !
 ! R9    R(7,9)                  1.5433         estimate D2E/DX2                !
 ! R10   R(7,23)                 1.76           estimate D2E/DX2                !
 ! R11   R(9,10)                 1.0851         estimate D2E/DX2                !
 ! R12   R(9,11)                 1.082          estimate D2E/DX2                !
 ! R13   R(9,12)                 1.085          estimate D2E/DX2                !
 ! R14   R(13,14)                1.0874         estimate D2E/DX2                !
 ! R15   R(13,15)                1.0871         estimate D2E/DX2                !
 ! R16   R(13,16)                1.5404         estimate D2E/DX2                !
 ! R17   R(16,17)                1.0835         estimate D2E/DX2                !
 ! R18   R(16,18)                1.0857         estimate D2E/DX2                !
 ! R19   R(16,19)                1.5418         estimate D2E/DX2                !
 ! R20   R(19,20)                1.085          estimate D2E/DX2                !
 ! R21   R(19,21)                1.0845         estimate D2E/DX2                !
 ! R22   R(19,22)                1.0849         estimate D2E/DX2                !
 ! A1    A(2,1,3)              108.1392         estimate D2E/DX2                !
 ! A2    A(2,1,7)              108.5888         estimate D2E/DX2                !
 ! A3    A(2,1,13)             108.359          estimate D2E/DX2                !
 ! A4    A(3,1,7)              110.119          estimate D2E/DX2                !
 ! A5    A(3,1,13)             108.7139         estimate D2E/DX2                !
 ! A6    A(7,1,13)             112.8028         estimate D2E/DX2                !
 ! A7    A(1,3,4)              110.1906         estimate D2E/DX2                !
 ! A8    A(1,3,5)              110.9945         estimate D2E/DX2                !
 ! A9    A(1,3,6)              110.8648         estimate D2E/DX2                !
 ! A10   A(4,3,5)              108.2242         estimate D2E/DX2                !
 ! A11   A(4,3,6)              108.2349         estimate D2E/DX2                !
 ! A12   A(5,3,6)              108.2368         estimate D2E/DX2                !
 ! A13   A(1,7,8)              109.3819         estimate D2E/DX2                !
 ! A14   A(1,7,9)              113.8079         estimate D2E/DX2                !
 ! A15   A(1,7,23)             108.9931         estimate D2E/DX2                !
 ! A16   A(8,7,9)              109.9089         estimate D2E/DX2                !
 ! A17   A(8,7,23)             106.671          estimate D2E/DX2                !
 ! A18   A(9,7,23)             107.8194         estimate D2E/DX2                !
 ! A19   A(7,9,10)             110.1032         estimate D2E/DX2                !
 ! A20   A(7,9,11)             111.662          estimate D2E/DX2                !
 ! A21   A(7,9,12)             110.7009         estimate D2E/DX2                !
 ! A22   A(10,9,11)            108.0783         estimate D2E/DX2                !
 ! A23   A(10,9,12)            108.0185         estimate D2E/DX2                !
 ! A24   A(11,9,12)            108.1595         estimate D2E/DX2                !
 ! A25   A(1,13,14)            108.4783         estimate D2E/DX2                !
 ! A26   A(1,13,15)            108.2691         estimate D2E/DX2                !
 ! A27   A(1,13,16)            115.5814         estimate D2E/DX2                !
 ! A28   A(14,13,15)           106.9723         estimate D2E/DX2                !
 ! A29   A(14,13,16)           109.0055         estimate D2E/DX2                !
 ! A30   A(15,13,16)           108.2072         estimate D2E/DX2                !
 ! A31   A(13,16,17)           109.9758         estimate D2E/DX2                !
 ! A32   A(13,16,18)           109.4512         estimate D2E/DX2                !
 ! A33   A(13,16,19)           111.3511         estimate D2E/DX2                !
 ! A34   A(17,16,18)           107.4864         estimate D2E/DX2                !
 ! A35   A(17,16,19)           109.0656         estimate D2E/DX2                !
 ! A36   A(18,16,19)           109.4268         estimate D2E/DX2                !
 ! A37   A(16,19,20)           110.5473         estimate D2E/DX2                !
 ! A38   A(16,19,21)           111.098          estimate D2E/DX2                !
 ! A39   A(16,19,22)           110.5983         estimate D2E/DX2                !
 ! A40   A(20,19,21)           108.1635         estimate D2E/DX2                !
 ! A41   A(20,19,22)           108.1361         estimate D2E/DX2                !
 ! A42   A(21,19,22)           108.1944         estimate D2E/DX2                !
 ! D1    D(2,1,3,4)            178.6736         estimate D2E/DX2                !
 ! D2    D(2,1,3,5)            -61.4568         estimate D2E/DX2                !
 ! D3    D(2,1,3,6)             58.874          estimate D2E/DX2                !
 ! D4    D(7,1,3,4)             60.1675         estimate D2E/DX2                !
 ! D5    D(7,1,3,5)           -179.963          estimate D2E/DX2                !
 ! D6    D(7,1,3,6)            -59.6321         estimate D2E/DX2                !
 ! D7    D(13,1,3,4)           -63.8799         estimate D2E/DX2                !
 ! D8    D(13,1,3,5)            55.9897         estimate D2E/DX2                !
 ! D9    D(13,1,3,6)           176.3205         estimate D2E/DX2                !
 ! D10   D(2,1,7,8)            146.5631         estimate D2E/DX2                !
 ! D11   D(2,1,7,9)             23.2112         estimate D2E/DX2                !
 ! D12   D(2,1,7,23)           -97.1601         estimate D2E/DX2                !
 ! D13   D(3,1,7,8)            -95.2071         estimate D2E/DX2                !
 ! D14   D(3,1,7,9)            141.441          estimate D2E/DX2                !
 ! D15   D(3,1,7,23)            21.0697         estimate D2E/DX2                !
 ! D16   D(13,1,7,8)            26.4391         estimate D2E/DX2                !
 ! D17   D(13,1,7,9)           -96.9128         estimate D2E/DX2                !
 ! D18   D(13,1,7,23)          142.7158         estimate D2E/DX2                !
 ! D19   D(2,1,13,14)          178.7968         estimate D2E/DX2                !
 ! D20   D(2,1,13,15)           63.0477         estimate D2E/DX2                !
 ! D21   D(2,1,13,16)          -58.4749         estimate D2E/DX2                !
 ! D22   D(3,1,13,14)           61.4903         estimate D2E/DX2                !
 ! D23   D(3,1,13,15)          -54.2589         estimate D2E/DX2                !
 ! D24   D(3,1,13,16)         -175.7815         estimate D2E/DX2                !
 ! D25   D(7,1,13,14)          -60.9472         estimate D2E/DX2                !
 ! D26   D(7,1,13,15)         -176.6963         estimate D2E/DX2                !
 ! D27   D(7,1,13,16)           61.7811         estimate D2E/DX2                !
 ! D28   D(1,7,9,10)           -60.611          estimate D2E/DX2                !
 ! D29   D(1,7,9,11)            59.4506         estimate D2E/DX2                !
 ! D30   D(1,7,9,12)          -179.9802         estimate D2E/DX2                !
 ! D31   D(8,7,9,10)           176.3244         estimate D2E/DX2                !
 ! D32   D(8,7,9,11)           -63.614          estimate D2E/DX2                !
 ! D33   D(8,7,9,12)            56.9552         estimate D2E/DX2                !
 ! D34   D(23,7,9,10)           60.4182         estimate D2E/DX2                !
 ! D35   D(23,7,9,11)         -179.5203         estimate D2E/DX2                !
 ! D36   D(23,7,9,12)          -58.9511         estimate D2E/DX2                !
 ! D37   D(1,13,16,17)         -63.66           estimate D2E/DX2                !
 ! D38   D(1,13,16,18)          54.2081         estimate D2E/DX2                !
 ! D39   D(1,13,16,19)         175.3247         estimate D2E/DX2                !
 ! D40   D(14,13,16,17)         58.7884         estimate D2E/DX2                !
 ! D41   D(14,13,16,18)        176.6566         estimate D2E/DX2                !
 ! D42   D(14,13,16,19)        -62.2268         estimate D2E/DX2                !
 ! D43   D(15,13,16,17)        174.7841         estimate D2E/DX2                !
 ! D44   D(15,13,16,18)        -67.3477         estimate D2E/DX2                !
 ! D45   D(15,13,16,19)         53.7689         estimate D2E/DX2                !
 ! D46   D(13,16,19,20)         59.556          estimate D2E/DX2                !
 ! D47   D(13,16,19,21)        179.6517         estimate D2E/DX2                !
 ! D48   D(13,16,19,22)        -60.1798         estimate D2E/DX2                !
 ! D49   D(17,16,19,20)        -61.9904         estimate D2E/DX2                !
 ! D50   D(17,16,19,21)         58.1053         estimate D2E/DX2                !
 ! D51   D(17,16,19,22)        178.2738         estimate D2E/DX2                !
 ! D52   D(18,16,19,20)       -179.3131         estimate D2E/DX2                !
 ! D53   D(18,16,19,21)        -59.2174         estimate D2E/DX2                !
 ! D54   D(18,16,19,22)         60.9511         estimate D2E/DX2                !
 --------------------------------------------------------------------------------
 Trust Radius=3.00D-01 FncErr=1.00D-07 GrdErr=1.00D-07 EigMax=2.50D+02 EigMin=1.00D-04
 Number of steps in this run=    128 maximum allowed number of steps=    138.
 GradGradGradGradGradGradGradGradGradGradGradGradGradGradGradGradGradGrad

                          Input orientation:                          
 ---------------------------------------------------------------------
 Center     Atomic      Atomic             Coordinates (Angstroms)
 Number     Number       Type             X           Y           Z
 ---------------------------------------------------------------------
      1          6           0        0.822442   -0.540039   -0.289501
      2          1           0        0.882670   -0.283440   -1.343621
      3          6           0        1.583227   -1.866001   -0.073343
      4          1           0        1.563860   -2.142339    0.976591
      5          1           0        1.131973   -2.670583   -0.644326
      6          1           0        2.619326   -1.771449   -0.380401
      7          6           0        1.485915    0.597921    0.536264
      8          1           0        0.969546    0.702347    1.485610
      9          6           0        1.523368    1.957079   -0.193909
     10          1           0        2.094491    1.871334   -1.112495
     11          1           0        0.529531    2.301832   -0.447377
     12          1           0        1.995563    2.712416    0.425619
     13          6           0       -0.664120   -0.756122    0.074809
     14          1           0       -0.724884   -1.034024    1.124369
     15          1           0       -1.036327   -1.600914   -0.499193
     16          6           0       -1.592985    0.445873   -0.180438
     17          1           0       -1.302224    1.278559    0.448909
     18          1           0       -1.493445    0.766893   -1.212829
     19          6           0       -3.065222    0.088320    0.105737
     20          1           0       -3.187636   -0.223920    1.137651
     21          1           0       -3.714714    0.939026   -0.069390
     22          1           0       -3.391873   -0.724642   -0.534088
     23         17           0        3.144023    0.141907    0.910871
 ---------------------------------------------------------------------
                    Distance matrix (angstroms):
                    1          2          3          4          5
     1  C    0.000000
     2  H    1.086572   0.000000
     3  C    1.543921   2.146832   0.000000
     4  H    2.172569   3.050067   1.085863   0.000000
     5  H    2.181955   2.499923   1.084898   1.758676   0.000000
     6  H    2.180235   2.481519   1.084770   1.758691   1.757930
     7  C    1.554682   2.162098   2.540079   2.776506   3.493163
     8  H    2.171677   2.997311   3.066488   2.950347   3.992451
     9  C    2.595387   2.598511   3.825449   4.263442   4.665975
    10  H    2.847832   2.482938   3.912659   4.555812   4.666330
    11  H    2.861285   2.758911   4.315207   4.779977   5.012648
    12  H    3.530733   3.652930   4.623947   4.904955   5.555830
    13  C    1.545730   2.151263   2.510846   2.774654   2.721813
    14  H    2.153432   3.039503   2.730215   2.547263   3.042125
    15  H    2.150453   2.476155   2.667149   3.038429   2.422144
    16  C    2.611169   2.830858   3.929956   4.243021   4.165680
    17  H    2.892534   3.229050   4.299632   4.493932   4.766152
    18  H    2.814949   2.601198   4.206717   4.754398   4.362597
    19  C    3.957901   4.221930   5.045743   5.211778   5.078443
    20  H    4.268187   4.767352   5.188841   5.126693   5.274526
    21  H    4.777224   4.924838   5.994695   6.200986   6.070437
    22  H    4.225441   4.372839   5.125096   5.371341   4.925852
    23  Cl   2.701052   3.221392   2.726986   2.778311   3.791712
                    6          7          8          9         10
     6  H    0.000000
     7  C    2.781872   0.000000
     8  H    3.510475   1.085725   0.000000
     9  C    3.890736   1.543329   2.168376   0.000000
    10  H    3.752503   2.170334   3.063035   1.085050   0.000000
    11  H    4.578575   2.187586   2.547235   1.082041   1.754084
    12  H    4.598238   2.177860   2.493325   1.085042   1.755847
    13  C    3.466861   2.582445   2.605064   3.495536   3.990382
    14  H    3.740571   2.810115   2.452870   3.967265   4.625315
    15  H    3.661556   3.502678   3.642524   4.393694   4.715365
    16  C    4.764459   3.164871   3.067256   3.463464   4.061791
    17  H    5.036751   2.871344   2.562754   2.976168   3.785107
    18  H    4.904182   3.458969   3.654048   3.399397   3.755415
    19  C    6.000763   4.599771   4.308182   4.963588   5.593377
    20  H    6.198398   4.783217   4.273313   5.359419   6.111801
    21  H    6.896627   5.246876   4.941289   5.337550   5.975293
    22  H    6.103600   5.166008   5.013726   5.609540   6.097035
    23  Cl   2.367197   1.760000   2.317923   2.672435   2.861196
                   11         12         13         14         15
    11  H    0.000000
    12  H    1.754979   0.000000
    13  C    3.323938   4.384944   0.000000
    14  H    3.895109   4.682403   1.087427   0.000000
    15  H    4.205475   5.352798   1.087056   1.747660   0.000000
    16  C    2.832122   4.287447   1.540368   2.155508   2.144950
    17  H    2.281610   3.596093   2.164961   2.477420   3.043183
    18  H    2.652242   4.317725   2.159946   3.049013   2.514904
    19  C    4.257678   5.709619   2.545453   2.788270   2.708481
    20  H    4.765403   5.999551   2.789445   2.592603   3.033727
    21  H    4.473671   5.999767   3.492913   3.775854   3.716152
    22  H    4.954238   6.462110   2.795064   3.155793   2.513497
    23  Cl   3.653174   2.856912   4.000926   4.049301   4.743525
                   16         17         18         19         20
    16  C    0.000000
    17  H    1.083506   0.000000
    18  H    1.085722   1.749211   0.000000
    19  C    1.541824   2.154669   2.160917   0.000000
    20  H    2.174602   2.507307   3.062148   1.085046   0.000000
    21  H    2.181116   2.490788   2.504220   1.084532   1.757044
    22  H    2.175126   3.057079   2.507867   1.084889   1.757028
    23  Cl   4.870584   4.612428   5.138756   6.261456   6.346271
                   21         22         23
    21  H    0.000000
    22  H    1.757260   0.000000
    23  Cl   6.974136   6.749574   0.000000
 Stoichiometry    C7H15Cl
 Framework group  C1[X(C7H15Cl)]
 Deg. of freedom    63
 Full point group                 C1      NOp   1
 Largest Abelian subgroup         C1      NOp   1
 Largest concise Abelian subgroup C1      NOp   1
                         Standard orientation:                         
 ---------------------------------------------------------------------
 Center     Atomic      Atomic             Coordinates (Angstroms)
 Number     Number       Type             X           Y           Z
 ---------------------------------------------------------------------
      1          6           0        0.058958    0.576074    0.494156
      2          1           0       -0.005426    0.330851    1.550735
      3          6           0        0.808520    1.918864    0.357172
      4          1           0        0.912447    2.184895   -0.690456
      5          1           0        0.270929    2.716980    0.858182
      6          1           0        1.800688    1.853489    0.790825
      7          6           0        0.846589   -0.552269   -0.229388
      8          1           0        0.454194   -0.678549   -1.233818
      9          6           0        0.826170   -1.903224    0.516514
     10          1           0        1.277135   -1.794513    1.497404
     11          1           0       -0.182797   -2.270734    0.649688
     12          1           0        1.389352   -2.652031   -0.030690
     13          6           0       -1.375933    0.750971   -0.053366
     14          1           0       -1.313157    1.017518   -1.105749
     15          1           0       -1.836446    1.591318    0.459893
     16          6           0       -2.300050   -0.471802    0.100146
     17          1           0       -1.913784   -1.302626   -0.478227
     18          1           0       -2.321199   -0.780626    1.140806
     19          6           0       -3.733790   -0.154400   -0.369820
     20          1           0       -3.735180    0.145071   -1.412720
     21          1           0       -4.379302   -1.019662   -0.265677
     22          1           0       -4.156481    0.655894    0.214767
     23         17           0        2.526837   -0.057797   -0.402202
 ---------------------------------------------------------------------
 Rotational constants (GHZ):           2.9113004           0.8396303           0.7047852
 Standard basis: 3-21G (6D, 7F)
 There are   106 symmetry adapted cartesian basis functions of A   symmetry.
 There are   106 symmetry adapted basis functions of A   symmetry.
   106 basis functions,   177 primitive gaussians,   106 cartesian basis functions
    37 alpha electrons       37 beta electrons
       nuclear repulsion energy       474.3527682381 Hartrees.
 NAtoms=   23 NActive=   23 NUniq=   23 SFac= 1.00D+00 NAtFMM=   60 NAOKFM=F Big=F
 Integral buffers will be    131072 words long.
 Raffenetti 1 integral format.
 Two-electron integral symmetry is turned on.
 One-electron integrals computed using PRISM.
 NBasis=   106 RedAO= T EigKep=  9.24D-03  NBF=   106
 NBsUse=   106 1.00D-06 EigRej= -1.00D+00 NBFU=   106
 ExpMin= 1.67D-01 ExpMax= 1.38D+03 ExpMxC= 1.38D+03 IAcc=3 IRadAn=         5 AccDes= 0.00D+00
 Harris functional with IExCor=  205 and IRadAn=       5 diagonalized for initial guess.
 HarFok:  IExCor=  205 AccDes= 0.00D+00 IRadAn=         5 IDoV= 1 UseB2=F ITyADJ=14
 ICtDFT=  3500011 ScaDFX=  1.000000  1.000000  1.000000  1.000000
 FoFCou: FMM=F IPFlag=           0 FMFlag=      100000 FMFlg1=           0
         NFxFlg=           0 DoJE=T BraDBF=F KetDBF=T FulRan=T
         wScrn=  0.000000 ICntrl=       500 IOpCl=  0 I1Cent=   200000004 NGrid=           0
         NMat0=    1 NMatS0=      1 NMatT0=    0 NMatD0=    1 NMtDS0=    0 NMtDT0=    0
 Petite list used in FoFCou.
 Keep R1 ints in memory in canonical form, NReq=16955108.
 Requested convergence on RMS density matrix=1.00D-08 within 128 cycles.
 Requested convergence on MAX density matrix=1.00D-06.
 Requested convergence on             energy=1.00D-06.
 No special actions if energy rises.
 SCF Done:  E(RHF) =  -729.591744133     A.U. after   11 cycles
            NFock= 11  Conv=0.94D-08     -V/T= 2.0007

 **********************************************************************

            Population analysis using the SCF density.

 **********************************************************************

 Orbital symmetries:
       Occupied  (A) (A) (A) (A) (A) (A) (A) (A) (A) (A) (A) (A)
                 (A) (A) (A) (A) (A) (A) (A) (A) (A) (A) (A) (A)
                 (A) (A) (A) (A) (A) (A) (A) (A) (A) (A) (A) (A)
                 (A)
       Virtual   (A) (A) (A) (A) (A) (A) (A) (A) (A) (A) (A) (A)
                 (A) (A) (A) (A) (A) (A) (A) (A) (A) (A) (A) (A)
                 (A) (A) (A) (A) (A) (A) (A) (A) (A) (A) (A) (A)
                 (A) (A) (A) (A) (A) (A) (A) (A) (A) (A) (A) (A)
                 (A) (A) (A) (A) (A) (A) (A) (A) (A) (A) (A) (A)
                 (A) (A) (A) (A) (A) (A) (A) (A) (A)
 The electronic state is 1-A.
 Alpha  occ. eigenvalues -- -104.07699 -11.24046 -11.18487 -11.17043 -11.16923
 Alpha  occ. eigenvalues --  -11.16866 -11.15828 -11.14906 -10.47250  -7.93622
 Alpha  occ. eigenvalues --   -7.93195  -7.93173  -1.17196  -1.08641  -1.02619
 Alpha  occ. eigenvalues --   -0.99444  -0.92776  -0.86592  -0.81802  -0.77584
 Alpha  occ. eigenvalues --   -0.65767  -0.64477  -0.61476  -0.60374  -0.58456
 Alpha  occ. eigenvalues --   -0.56085  -0.55198  -0.53809  -0.53383  -0.51089
 Alpha  occ. eigenvalues --   -0.49093  -0.48860  -0.47269  -0.45843  -0.44199
 Alpha  occ. eigenvalues --   -0.41725  -0.41161
 Alpha virt. eigenvalues --    0.21776   0.25597   0.27437   0.28008   0.28319
 Alpha virt. eigenvalues --    0.31901   0.32372   0.32584   0.33871   0.34100
 Alpha virt. eigenvalues --    0.34867   0.36033   0.36592   0.37497   0.38893
 Alpha virt. eigenvalues --    0.39942   0.42516   0.43302   0.44439   0.46364
 Alpha virt. eigenvalues --    0.47844   0.49424   0.74546   0.80952   0.84457
 Alpha virt. eigenvalues --    0.86753   0.88809   0.90094   0.90633   0.92746
 Alpha virt. eigenvalues --    0.96596   0.97149   1.00544   1.02109   1.04945
 Alpha virt. eigenvalues --    1.06624   1.07280   1.08957   1.12928   1.17351
 Alpha virt. eigenvalues --    1.19076   1.21652   1.23724   1.25307   1.30447
 Alpha virt. eigenvalues --    1.33103   1.35182   1.36017   1.36227   1.37120
 Alpha virt. eigenvalues --    1.37507   1.40015   1.40896   1.41462   1.42746
 Alpha virt. eigenvalues --    1.45149   1.47435   1.48305   1.50391   1.55520
 Alpha virt. eigenvalues --    1.57553   1.69131   1.87560   2.00678   2.16421
 Alpha virt. eigenvalues --    2.26864   2.34939   2.57317   2.78097
          Condensed to atoms (all electrons):
               1          2          3          4          5          6
     1  C    5.690767   0.397195   0.265304  -0.048889  -0.041212  -0.038238
     2  H    0.397195   0.499769  -0.040340   0.003090  -0.001607  -0.001551
     3  C    0.265304  -0.040340   5.393332   0.380167   0.377409   0.391315
     4  H   -0.048889   0.003090   0.380167   0.511772  -0.025283  -0.024428
     5  H   -0.041212  -0.001607   0.377409  -0.025283   0.513100  -0.025300
     6  H   -0.038238  -0.001551   0.391315  -0.024428  -0.025300   0.480465
     7  C    0.143867  -0.049504  -0.071363  -0.001553   0.004070  -0.004511
     8  H   -0.043898   0.002684   0.001653   0.000663  -0.000059   0.000049
     9  C   -0.060792  -0.003346   0.002959  -0.000003  -0.000046   0.000006
    10  H   -0.001427   0.002171  -0.000070   0.000002  -0.000002   0.000023
    11  H    0.000146   0.000146  -0.000000   0.000000  -0.000001   0.000000
    12  H    0.003213   0.000090  -0.000063   0.000002   0.000000  -0.000001
    13  C    0.249312  -0.043460  -0.084692  -0.001364  -0.001857   0.003304
    14  H   -0.049126   0.003251  -0.000105   0.002466   0.000053  -0.000029
    15  H   -0.045280  -0.001294  -0.002395   0.000094   0.001997   0.000033
    16  C   -0.063030  -0.001272   0.003409  -0.000048   0.000005  -0.000055
    17  H   -0.001506   0.000094  -0.000048   0.000003  -0.000001   0.000001
    18  H   -0.000733   0.002295  -0.000021   0.000001   0.000002   0.000001
    19  C    0.003442  -0.000035  -0.000067  -0.000000  -0.000002   0.000000
    20  H   -0.000029   0.000001   0.000000  -0.000000   0.000000   0.000000
    21  H   -0.000058   0.000001   0.000000   0.000000   0.000000  -0.000000
    22  H   -0.000050   0.000003  -0.000001   0.000000  -0.000001   0.000000
    23  Cl  -0.092078   0.003470  -0.045026  -0.004827   0.001831  -0.018155
               7          8          9         10         11         12
     1  C    0.143867  -0.043898  -0.060792  -0.001427   0.000146   0.003213
     2  H   -0.049504   0.002684  -0.003346   0.002171   0.000146   0.000090
     3  C   -0.071363   0.001653   0.002959  -0.000070  -0.000000  -0.000063
     4  H   -0.001553   0.000663  -0.000003   0.000002   0.000000   0.000002
     5  H    0.004070  -0.000059  -0.000046  -0.000002  -0.000001   0.000000
     6  H   -0.004511   0.000049   0.000006   0.000023   0.000000  -0.000001
     7  C    5.927315   0.377331   0.205657  -0.047610  -0.037500  -0.044379
     8  H    0.377331   0.471185  -0.037975   0.002685  -0.000521  -0.001538
     9  C    0.205657  -0.037975   5.420741   0.377699   0.368178   0.380604
    10  H   -0.047610   0.002685   0.377699   0.490375  -0.023546  -0.023922
    11  H   -0.037500  -0.000521   0.368178  -0.023546   0.489375  -0.023479
    12  H   -0.044379  -0.001538   0.380604  -0.023922  -0.023479   0.484362
    13  C   -0.068607  -0.002857   0.003122   0.000064  -0.000266  -0.000088
    14  H   -0.001939   0.002589   0.000044   0.000001   0.000011   0.000003
    15  H    0.003496   0.000071  -0.000111   0.000002   0.000006   0.000001
    16  C    0.000624   0.000124  -0.001919   0.000028   0.000112   0.000027
    17  H    0.000651   0.000816  -0.001530   0.000034   0.001266   0.000051
    18  H   -0.000128   0.000058  -0.000036   0.000007   0.000417   0.000006
    19  C   -0.000082  -0.000047   0.000047  -0.000001   0.000032  -0.000001
    20  H    0.000002  -0.000001  -0.000001  -0.000000  -0.000000   0.000000
    21  H    0.000002   0.000001   0.000000   0.000000  -0.000003   0.000000
    22  H    0.000000   0.000000  -0.000001   0.000000  -0.000000   0.000000
    23  Cl   0.167203  -0.049590  -0.098753   0.001479   0.003697   0.000108
              13         14         15         16         17         18
     1  C    0.249312  -0.049126  -0.045280  -0.063030  -0.001506  -0.000733
     2  H   -0.043460   0.003251  -0.001294  -0.001272   0.000094   0.002295
     3  C   -0.084692  -0.000105  -0.002395   0.003409  -0.000048  -0.000021
     4  H   -0.001364   0.002466   0.000094  -0.000048   0.000003   0.000001
     5  H   -0.001857   0.000053   0.001997   0.000005  -0.000001   0.000002
     6  H    0.003304  -0.000029   0.000033  -0.000055   0.000001   0.000001
     7  C   -0.068607  -0.001939   0.003496   0.000624   0.000651  -0.000128
     8  H   -0.002857   0.002589   0.000071   0.000124   0.000816   0.000058
     9  C    0.003122   0.000044  -0.000111  -0.001919  -0.001530  -0.000036
    10  H    0.000064   0.000001   0.000002   0.000028   0.000034   0.000007
    11  H   -0.000266   0.000011   0.000006   0.000112   0.001266   0.000417
    12  H   -0.000088   0.000003   0.000001   0.000027   0.000051   0.000006
    13  C    5.451388   0.382856   0.392020   0.247570  -0.044283  -0.047253
    14  H    0.382856   0.525712  -0.025799  -0.046463  -0.002260   0.003316
    15  H    0.392020  -0.025799   0.507797  -0.047723   0.003158  -0.001602
    16  C    0.247570  -0.046463  -0.047723   5.453265   0.383860   0.386322
    17  H   -0.044283  -0.002260   0.003158   0.383860   0.524169  -0.028789
    18  H   -0.047253   0.003316  -0.001602   0.386322  -0.028789   0.522412
    19  C   -0.079039  -0.000538  -0.001566   0.255015  -0.043018  -0.042255
    20  H   -0.001319   0.002283   0.000031  -0.045187  -0.001892   0.003074
    21  H    0.003438  -0.000038  -0.000007  -0.040171  -0.001396  -0.001473
    22  H   -0.001518   0.000015   0.002769  -0.045077   0.003098  -0.001917
    23  Cl   0.004051  -0.000092  -0.000084  -0.000023   0.000039  -0.000007
              19         20         21         22         23
     1  C    0.003442  -0.000029  -0.000058  -0.000050  -0.092078
     2  H   -0.000035   0.000001   0.000001   0.000003   0.003470
     3  C   -0.000067   0.000000   0.000000  -0.000001  -0.045026
     4  H   -0.000000  -0.000000   0.000000   0.000000  -0.004827
     5  H   -0.000002   0.000000   0.000000  -0.000001   0.001831
     6  H    0.000000   0.000000  -0.000000   0.000000  -0.018155
     7  C   -0.000082   0.000002   0.000002   0.000000   0.167203
     8  H   -0.000047  -0.000001   0.000001   0.000000  -0.049590
     9  C    0.000047  -0.000001   0.000000  -0.000001  -0.098753
    10  H   -0.000001  -0.000000   0.000000   0.000000   0.001479
    11  H    0.000032  -0.000000  -0.000003  -0.000000   0.003697
    12  H   -0.000001   0.000000   0.000000   0.000000   0.000108
    13  C   -0.079039  -0.001319   0.003438  -0.001518   0.004051
    14  H   -0.000538   0.002283  -0.000038   0.000015  -0.000092
    15  H   -0.001566   0.000031  -0.000007   0.002769  -0.000084
    16  C    0.255015  -0.045187  -0.040171  -0.045077  -0.000023
    17  H   -0.043018  -0.001892  -0.001396   0.003098   0.000039
    18  H   -0.042255   0.003074  -0.001473  -0.001917  -0.000007
    19  C    5.352895   0.377150   0.380959   0.377365   0.000001
    20  H    0.377150   0.518720  -0.025987  -0.027093  -0.000000
    21  H    0.380959  -0.025987   0.507776  -0.025858  -0.000000
    22  H    0.377365  -0.027093  -0.025858   0.517920   0.000000
    23  Cl   0.000001  -0.000000  -0.000000   0.000000  17.101887
 Mulliken charges:
               1
     1  C   -0.266902
     2  H    0.228151
     3  C   -0.571358
     4  H    0.208136
     5  H    0.196902
     6  H    0.237072
     7  C   -0.503042
     8  H    0.276577
     9  C   -0.554544
    10  H    0.222009
    11  H    0.221930
    12  H    0.225005
    13  C   -0.360521
    14  H    0.203791
    15  H    0.214386
    16  C   -0.439394
    17  H    0.207482
    18  H    0.206303
    19  C   -0.580257
    20  H    0.200248
    21  H    0.202816
    22  H    0.200344
    23  Cl   0.024867
 Sum of Mulliken charges =  -0.00000
 Mulliken charges with hydrogens summed into heavy atoms:
               1
     1  C   -0.038751
     3  C    0.070752
     7  C   -0.226465
     9  C    0.114400
    13  C    0.057656
    16  C   -0.025609
    19  C    0.023150
    23  Cl   0.024867
 Electronic spatial extent (au):  <R**2>=           1685.9448
 Charge=             -0.0000 electrons
 Dipole moment (field-independent basis, Debye):
    X=             -2.5011    Y=             -0.5047    Z=              0.4807  Tot=              2.5964
 Quadrupole moment (field-independent basis, Debye-Ang):
   XX=            -68.3247   YY=            -59.5753   ZZ=            -60.2667
   XY=             -0.1061   XZ=              1.4237   YZ=              0.1716
 Traceless Quadrupole moment (field-independent basis, Debye-Ang):
   XX=             -5.6025   YY=              3.1470   ZZ=              2.4555
   XY=             -0.1061   XZ=              1.4237   YZ=              0.1716
 Octapole moment (field-independent basis, Debye-Ang**2):
  XXX=             -9.1422  YYY=             -3.6601  ZZZ=             -1.4178  XYY=              3.5754
  XXY=              1.3991  XXZ=              4.9698  XZZ=              2.0596  YZZ=             -0.3079
  YYZ=              0.2369  XYZ=             -0.5873
 Hexadecapole moment (field-independent basis, Debye-Ang**3):
 XXXX=          -1673.9277 YYYY=           -510.0554 ZZZZ=           -155.1457 XXXY=             13.4375
 XXXZ=              1.3130 YYYX=             -5.2635 YYYZ=              3.6106 ZZZX=              0.2116
 ZZZY=             -2.5859 XXYY=           -350.1725 XXZZ=           -300.9044 YYZZ=           -111.1144
 XXYZ=              1.4106 YYXZ=             -3.9501 ZZXY=             -1.9179
 N-N= 4.743527682381D+02 E-N=-2.670467658670D+03  KE= 7.290577555624D+02
 Calling FoFJK, ICntrl=      2127 FMM=F ISym2X=0 I1Cent= 0 IOpClX= 0 NMat=1 NMatS=1 NMatT=0.
 ***** Axes restored to original set *****
 -------------------------------------------------------------------
 Center     Atomic                   Forces (Hartrees/Bohr)
 Number     Number              X              Y              Z
 -------------------------------------------------------------------
      1        6           0.000574330   -0.005339876   -0.004351743
      2        1           0.001117009    0.001130436    0.001073272
      3        6          -0.002045654   -0.010383224   -0.006180005
      4        1           0.000259591   -0.000569436   -0.001843713
      5        1          -0.002959800    0.001838251   -0.000505396
      6        1          -0.008193475   -0.006283007   -0.000944041
      7        6          -0.057781511    0.017363193   -0.013455770
      8        1           0.004366959   -0.001214342   -0.003725530
      9        6           0.001373808   -0.001317339   -0.000201297
     10        1          -0.000209008   -0.001532372    0.001599852
     11        1          -0.001144005   -0.002439321    0.001332502
     12        1          -0.000464006   -0.002148225    0.000062605
     13        6          -0.000183959    0.002654354    0.002798279
     14        1          -0.000083748   -0.000275901   -0.000215511
     15        1           0.001528742    0.000795035    0.000091573
     16        6          -0.000388872    0.000117323   -0.000382720
     17        1          -0.000366574    0.000385760    0.000200722
     18        1           0.000003774    0.000005913    0.000009979
     19        6           0.000009661   -0.000031830    0.000229468
     20        1          -0.000016076    0.000043639   -0.000084140
     21        1           0.000216366   -0.000121646   -0.000004096
     22        1           0.000102078    0.000107694    0.000002391
     23       17           0.064284369    0.007214920    0.024493320
 -------------------------------------------------------------------
 Cartesian Forces:  Max     0.064284369 RMS     0.011425080

 GradGradGradGradGradGradGradGradGradGradGradGradGradGradGradGradGradGrad
 Berny optimization.
 FormGI is forming the generalized inverse of G from B-inverse, IUseBI=4.
 Internal  Forces:  Max     0.063906628 RMS     0.009943019
 Search for a local minimum.
 Step number   1 out of a maximum of  128
 All quantities printed in internal units (Hartrees-Bohrs-Radians)
 Mixed Optimization -- RFO/linear search
 Second derivative matrix not updated -- first step.
 ITU=  0
     Eigenvalues ---    0.00230   0.00230   0.00230   0.00230   0.00230
     Eigenvalues ---    0.00232   0.03184   0.03550   0.03578   0.03998
     Eigenvalues ---    0.04489   0.04696   0.04789   0.04904   0.05007
     Eigenvalues ---    0.05383   0.05447   0.05447   0.05510   0.05533
     Eigenvalues ---    0.05545   0.08026   0.08732   0.09582   0.11989
     Eigenvalues ---    0.12503   0.16000   0.16000   0.16000   0.16000
     Eigenvalues ---    0.16000   0.16000   0.16000   0.16000   0.16000
     Eigenvalues ---    0.16191   0.16902   0.16915   0.21912   0.21992
     Eigenvalues ---    0.23193   0.27257   0.28017   0.28174   0.28226
     Eigenvalues ---    0.28358   0.28486   0.29539   0.35112   0.35155
     Eigenvalues ---    0.35212   0.35295   0.35311   0.35312   0.35391
     Eigenvalues ---    0.35391   0.35392   0.35409   0.35410   0.35424
     Eigenvalues ---    0.35452   0.35574   0.35749
 RFO step:  Lambda=-4.92660843D-02 EMin= 2.30000000D-03
 Linear search not attempted -- first point.
 Maximum step size (   0.300) exceeded in Quadratic search.
    -- Step size scaled by   0.791
 Iteration  1 RMS(Cart)=  0.11988816 RMS(Int)=  0.00722474
 Iteration  2 RMS(Cart)=  0.01532770 RMS(Int)=  0.00063760
 Iteration  3 RMS(Cart)=  0.00021245 RMS(Int)=  0.00061729
 Iteration  4 RMS(Cart)=  0.00000027 RMS(Int)=  0.00061729
 Variable       Old X    -DE/DX   Delta X   Delta X   Delta X     New X
                                 (Linear)    (Quad)   (Total)
    R1        2.05332  -0.00071   0.00000  -0.00140  -0.00140   2.05192
    R2        2.91759   0.00552   0.00000   0.01319   0.01319   2.93078
    R3        2.93792   0.02147   0.00000   0.05278   0.05278   2.99071
    R4        2.92101  -0.00068   0.00000  -0.00163  -0.00163   2.91937
    R5        2.05198  -0.00164   0.00000  -0.00323  -0.00323   2.04875
    R6        2.05016   0.00013   0.00000   0.00026   0.00026   2.05042
    R7        2.04992  -0.00811   0.00000  -0.01589  -0.01589   2.03403
    R8        2.05172  -0.00545   0.00000  -0.01072  -0.01072   2.04101
    R9        2.91647  -0.00788   0.00000  -0.01881  -0.01881   2.89766
   R10        3.32592   0.06391   0.00000   0.14667   0.14667   3.47259
   R11        2.05045  -0.00134   0.00000  -0.00264  -0.00264   2.04781
   R12        2.04476  -0.00004   0.00000  -0.00008  -0.00008   2.04469
   R13        2.05043  -0.00166   0.00000  -0.00326  -0.00326   2.04717
   R14        2.05494  -0.00013   0.00000  -0.00026  -0.00026   2.05468
   R15        2.05424  -0.00119   0.00000  -0.00235  -0.00235   2.05189
   R16        2.91087   0.00067   0.00000   0.00158   0.00158   2.91245
   R17        2.04753   0.00031   0.00000   0.00061   0.00061   2.04814
   R18        2.05172  -0.00001   0.00000  -0.00001  -0.00001   2.05170
   R19        2.91363  -0.00027   0.00000  -0.00064  -0.00064   2.91298
   R20        2.05044  -0.00009   0.00000  -0.00018  -0.00018   2.05026
   R21        2.04947  -0.00022   0.00000  -0.00044  -0.00044   2.04903
   R22        2.05014  -0.00011   0.00000  -0.00022  -0.00022   2.04992
    A1        1.88739  -0.00669   0.00000  -0.01678  -0.01833   1.86905
    A2        1.89523  -0.00611   0.00000  -0.02077  -0.02313   1.87210
    A3        1.89122   0.00949   0.00000   0.00492   0.00287   1.89409
    A4        1.92194   0.03593   0.00000   0.14584   0.14536   2.06730
    A5        1.89742  -0.01481   0.00000  -0.04800  -0.04571   1.85171
    A6        1.96878  -0.01786   0.00000  -0.06573  -0.06469   1.90409
    A7        1.92319   0.00175   0.00000   0.00880   0.00850   1.93169
    A8        1.93722  -0.00720   0.00000  -0.03211  -0.03199   1.90523
    A9        1.93496   0.00742   0.00000   0.03075   0.03062   1.96557
   A10        1.88887   0.00103   0.00000  -0.00137  -0.00143   1.88744
   A11        1.88906  -0.00156   0.00000   0.00359   0.00310   1.89216
   A12        1.88909  -0.00151   0.00000  -0.00985  -0.00958   1.87951
   A13        1.90908  -0.00113   0.00000  -0.01436  -0.01637   1.89271
   A14        1.98632  -0.02117   0.00000  -0.05264  -0.05247   1.93386
   A15        1.90229   0.03983   0.00000   0.16103   0.16107   2.06336
   A16        1.91827   0.00860   0.00000  -0.00623  -0.00791   1.91036
   A17        1.86176  -0.00831   0.00000  -0.03230  -0.03460   1.82716
   A18        1.88180  -0.01692   0.00000  -0.05298  -0.05171   1.83010
   A19        1.92166  -0.00148   0.00000  -0.00542  -0.00545   1.91622
   A20        1.94887  -0.00360   0.00000  -0.01395  -0.01400   1.93487
   A21        1.93209  -0.00095   0.00000  -0.00344  -0.00346   1.92864
   A22        1.88632   0.00255   0.00000   0.00931   0.00926   1.89559
   A23        1.88528   0.00148   0.00000   0.00628   0.00628   1.89156
   A24        1.88774   0.00231   0.00000   0.00836   0.00833   1.89607
   A25        1.89330  -0.00001   0.00000   0.00108   0.00107   1.89438
   A26        1.88965  -0.00141   0.00000  -0.00721  -0.00721   1.88244
   A27        2.01728   0.00112   0.00000   0.00336   0.00336   2.02064
   A28        1.86702   0.00023   0.00000   0.00042   0.00042   1.86744
   A29        1.90251  -0.00034   0.00000   0.00046   0.00045   1.90296
   A30        1.88857   0.00035   0.00000   0.00166   0.00166   1.89023
   A31        1.91944   0.00043   0.00000   0.00204   0.00204   1.92148
   A32        1.91028   0.00003   0.00000   0.00011   0.00011   1.91039
   A33        1.94344  -0.00031   0.00000  -0.00098  -0.00098   1.94246
   A34        1.87599  -0.00005   0.00000   0.00004   0.00003   1.87603
   A35        1.90355  -0.00022   0.00000  -0.00140  -0.00140   1.90216
   A36        1.90986   0.00014   0.00000   0.00022   0.00022   1.91008
   A37        1.92941   0.00009   0.00000   0.00042   0.00042   1.92983
   A38        1.93903  -0.00015   0.00000  -0.00062  -0.00062   1.93840
   A39        1.93031  -0.00011   0.00000  -0.00042  -0.00042   1.92988
   A40        1.88781   0.00004   0.00000   0.00017   0.00017   1.88798
   A41        1.88733   0.00005   0.00000   0.00029   0.00029   1.88762
   A42        1.88835   0.00009   0.00000   0.00020   0.00020   1.88855
    D1        3.11844   0.00413   0.00000   0.02400   0.02426  -3.14048
    D2       -1.07262   0.00193   0.00000   0.00734   0.00758  -1.06505
    D3        1.02755   0.00018   0.00000  -0.00595  -0.00599   1.02155
    D4        1.05012  -0.00504   0.00000  -0.02430  -0.02467   1.02545
    D5       -3.14095  -0.00725   0.00000  -0.04095  -0.04136   3.10088
    D6       -1.04078  -0.00900   0.00000  -0.05424  -0.05493  -1.09570
    D7       -1.11491   0.00365   0.00000  -0.00559  -0.00514  -1.12005
    D8        0.97720   0.00144   0.00000  -0.02224  -0.02182   0.95538
    D9        3.07737  -0.00030   0.00000  -0.03553  -0.03540   3.04198
   D10        2.55801  -0.00832   0.00000  -0.04613  -0.04593   2.51208
   D11        0.40511  -0.00362   0.00000   0.01036   0.00992   0.41503
   D12       -1.69576   0.00349   0.00000  -0.00228  -0.00121  -1.69698
   D13       -1.66168   0.00071   0.00000   0.00550   0.00627  -1.65540
   D14        2.46861   0.00541   0.00000   0.06199   0.06212   2.53074
   D15        0.36774   0.01252   0.00000   0.04935   0.05099   0.41873
   D16        0.46145  -0.00478   0.00000   0.00344   0.00224   0.46369
   D17       -1.69145  -0.00008   0.00000   0.05993   0.05809  -1.63336
   D18        2.49086   0.00703   0.00000   0.04729   0.04696   2.53782
   D19        3.12059   0.00022   0.00000   0.00397   0.00395   3.12454
   D20        1.10039   0.00070   0.00000   0.00673   0.00670   1.10709
   D21       -1.02058   0.00056   0.00000   0.00779   0.00777  -1.01281
   D22        1.07321   0.01105   0.00000   0.04754   0.04794   1.12115
   D23       -0.94700   0.01154   0.00000   0.05030   0.05069  -0.89630
   D24       -3.06797   0.01140   0.00000   0.05136   0.05176  -3.01620
   D25       -1.06373  -0.01223   0.00000  -0.06011  -0.06048  -1.12421
   D26       -3.08393  -0.01175   0.00000  -0.05735  -0.05773   3.14152
   D27        1.07828  -0.01189   0.00000  -0.05629  -0.05666   1.02163
   D28       -1.05786  -0.01157   0.00000  -0.06398  -0.06388  -1.12175
   D29        1.03761  -0.01170   0.00000  -0.06500  -0.06490   0.97271
   D30       -3.14125  -0.01185   0.00000  -0.06614  -0.06603   3.07591
   D31        3.07744  -0.00141   0.00000  -0.00257  -0.00249   3.07495
   D32       -1.11027  -0.00155   0.00000  -0.00359  -0.00350  -1.11377
   D33        0.99406  -0.00170   0.00000  -0.00473  -0.00463   0.98943
   D34        1.05450   0.01334   0.00000   0.06879   0.06858   1.12307
   D35       -3.13322   0.01320   0.00000   0.06776   0.06757  -3.06565
   D36       -1.02889   0.01305   0.00000   0.06663   0.06644  -0.96245
   D37       -1.11108  -0.00060   0.00000  -0.00450  -0.00450  -1.11557
   D38        0.94611  -0.00039   0.00000  -0.00318  -0.00318   0.94293
   D39        3.05999  -0.00040   0.00000  -0.00347  -0.00347   3.05653
   D40        1.02605  -0.00008   0.00000  -0.00032  -0.00032   1.02573
   D41        3.08324   0.00013   0.00000   0.00100   0.00100   3.08424
   D42       -1.08606   0.00012   0.00000   0.00071   0.00071  -1.08535
   D43        3.05056   0.00020   0.00000   0.00133   0.00133   3.05189
   D44       -1.17544   0.00041   0.00000   0.00265   0.00265  -1.17279
   D45        0.93844   0.00040   0.00000   0.00236   0.00236   0.94080
   D46        1.03945   0.00010   0.00000   0.00053   0.00053   1.03997
   D47        3.13551   0.00011   0.00000   0.00061   0.00061   3.13612
   D48       -1.05034   0.00005   0.00000   0.00016   0.00016  -1.05017
   D49       -1.08194  -0.00008   0.00000  -0.00046  -0.00046  -1.08240
   D50        1.01413  -0.00007   0.00000  -0.00038  -0.00038   1.01375
   D51        3.11147  -0.00013   0.00000  -0.00082  -0.00082   3.11064
   D52       -3.12960   0.00002   0.00000   0.00017   0.00017  -3.12943
   D53       -1.03354   0.00003   0.00000   0.00026   0.00026  -1.03328
   D54        1.06380  -0.00003   0.00000  -0.00019  -0.00019   1.06361
         Item               Value     Threshold  Converged?
 Maximum Force            0.063907     0.000450     NO 
 RMS     Force            0.009943     0.000300     NO 
 Maximum Displacement     0.706281     0.001800     NO 
 RMS     Displacement     0.131384     0.001200     NO 
 Predicted change in Energy=-2.741530D-02
 GradGradGradGradGradGradGradGradGradGradGradGradGradGradGradGradGradGrad

                          Input orientation:                          
 ---------------------------------------------------------------------
 Center     Atomic      Atomic             Coordinates (Angstroms)
 Number     Number       Type             X           Y           Z
 ---------------------------------------------------------------------
      1          6           0        0.886494   -0.575975   -0.273510
      2          1           0        0.959224   -0.300129   -1.321196
      3          6           0        1.538370   -1.975300   -0.124353
      4          1           0        1.496135   -2.309426    0.906165
      5          1           0        0.993324   -2.688865   -0.733495
      6          1           0        2.565906   -1.989563   -0.444537
      7          6           0        1.477920    0.625055    0.570533
      8          1           0        0.903229    0.719073    1.480153
      9          6           0        1.400582    1.936484   -0.220300
     10          1           0        2.029429    1.871819   -1.100459
     11          1           0        0.385111    2.137044   -0.535454
     12          1           0        1.745227    2.765797    0.385535
     13          6           0       -0.605439   -0.758246    0.083589
     14          1           0       -0.677592   -1.051426    1.128115
     15          1           0       -0.990154   -1.585261   -0.505504
     16          6           0       -1.506931    0.468321   -0.157550
     17          1           0       -1.203171    1.285917    0.485844
     18          1           0       -1.395678    0.802620   -1.184508
     19          6           0       -2.987319    0.137636    0.116805
     20          1           0       -3.121481   -0.187229    1.143247
     21          1           0       -3.617370    1.004448   -0.048665
     22          1           0       -3.327578   -0.658414   -0.536845
     23         17           0        3.224266    0.515655    1.131908
 ---------------------------------------------------------------------
                    Distance matrix (angstroms):
                    1          2          3          4          5
     1  C    0.000000
     2  H    1.085829   0.000000
     3  C    1.550904   2.138701   0.000000
     4  H    2.183609   3.047406   1.084154   0.000000
     5  H    2.165019   2.460207   1.085037   1.756496   0.000000
     6  H    2.201797   2.490812   1.076361   1.752460   1.745147
     7  C    1.582614   2.168790   2.692279   2.953668   3.594077
     8  H    2.180083   2.981520   3.199607   3.138918   4.064775
     9  C    2.565066   2.531641   3.915386   4.393837   4.671518
    10  H    2.825215   2.431342   3.999281   4.668378   4.691271
    11  H    2.771366   2.624273   4.290732   4.804553   4.868115
    12  H    3.512719   3.595918   4.772921   5.107934   5.618801
    13  C    1.544865   2.152084   2.473940   2.738504   2.636467
    14  H    2.153363   3.040188   2.707897   2.521293   2.989776
    15  H    2.143429   2.473256   2.586666   2.949383   2.281251
    16  C    2.613902   2.833109   3.904644   4.226792   4.068269
    17  H    2.899992   3.233711   4.303943   4.515464   4.702156
    18  H    2.817579   2.603902   4.177249   4.734800   4.254552
    19  C    3.958284   4.223114   5.000452   5.168420   4.955567
    20  H    4.268745   4.768478   5.149585   5.087466   5.168362
    21  H    4.778397   4.926101   5.955357   6.167770   5.947104
    22  H    4.223096   4.372671   5.057844   5.298710   4.778242
    23  Cl   2.938033   3.437097   3.259646   3.319410   4.327330
                    6          7          8          9         10
     6  H    0.000000
     7  C    3.008372   0.000000
     8  H    3.715593   1.080054   0.000000
     9  C    4.101476   1.533377   2.149649   0.000000
    10  H    3.953266   2.156571   3.042484   1.083655   0.000000
    11  H    4.668299   2.168767   2.518285   1.082001   1.758794
    12  H    4.896527   2.165284   2.469054   1.083317   1.757311
    13  C    3.442745   2.547748   2.531589   3.373135   3.906628
    14  H    3.724730   2.787062   2.399498   3.881319   4.565070
    15  H    3.579489   3.483496   3.582972   4.266104   4.628527
    16  C    4.765664   3.076363   2.924692   3.257771   3.919787
    17  H    5.079401   2.762636   2.397266   2.775140   3.648197
    18  H    4.902856   3.371835   3.520281   3.167714   3.589096
    19  C    5.973140   4.514622   4.163311   4.754279   5.445814
    20  H    6.173803   4.705560   4.139225   5.178655   5.983792
    21  H    6.881404   5.146778   4.780642   5.106661   5.809040
    22  H    6.042651   5.095723   4.885231   5.402702   5.951241
    23  Cl   3.032282   1.837616   2.355815   2.678254   2.872329
                   11         12         13         14         15
    11  H    0.000000
    12  H    1.758825   0.000000
    13  C    3.122036   4.246843   0.000000
    14  H    3.750085   4.581775   1.087288   0.000000
    15  H    3.968351   5.216125   1.085813   1.746823   0.000000
    16  C    2.550936   4.018690   1.541201   2.156472   2.146003
    17  H    2.071257   3.300478   2.167417   2.480306   3.044965
    18  H    2.318010   4.022982   2.160753   3.049814   2.515447
    19  C    3.974463   5.420003   2.545007   2.787734   2.710039
    20  H    4.529511   5.742763   2.789158   2.592231   3.035693
    21  H    4.188029   5.661124   3.492321   3.775410   3.717197
    22  H    4.647434   6.189455   2.793733   3.154200   2.514673
    23  Cl   3.670122   2.794238   4.169945   4.204789   4.985610
                   16         17         18         19         20
    16  C    0.000000
    17  H    1.083831   0.000000
    18  H    1.085715   1.749489   0.000000
    19  C    1.541484   2.153584   2.160773   0.000000
    20  H    2.174532   2.506442   3.062130   1.084952   0.000000
    21  H    2.180192   2.488630   2.503355   1.084300   1.756887
    22  H    2.174431   3.056047   2.507255   1.084772   1.757043
    23  Cl   4.903995   4.540143   5.176101   6.305325   6.384566
                   21         22         23
    21  H    0.000000
    22  H    1.757102   0.000000
    23  Cl   6.959932   6.862203   0.000000
 Stoichiometry    C7H15Cl
 Framework group  C1[X(C7H15Cl)]
 Deg. of freedom    63
 Full point group                 C1      NOp   1
 Largest Abelian subgroup         C1      NOp   1
 Largest concise Abelian subgroup C1      NOp   1
                         Standard orientation:                         
 ---------------------------------------------------------------------
 Center     Atomic      Atomic             Coordinates (Angstroms)
 Number     Number       Type             X           Y           Z
 ---------------------------------------------------------------------
      1          6           0        0.032419    0.727284    0.484477
      2          1           0       -0.040362    0.530910    1.549918
      3          6           0        0.584184    2.167717    0.323195
      4          1           0        0.679518    2.425975   -0.725425
      5          1           0       -0.106832    2.867241    0.781963
      6          1           0        1.543112    2.298846    0.794168
      7          6           0        0.845937   -0.468077   -0.158926
      8          1           0        0.432822   -0.676329   -1.134879
      9          6           0        0.750264   -1.724487    0.714874
     10          1           0        1.223732   -1.542366    1.672459
     11          1           0       -0.282783   -1.996566    0.886666
     12          1           0        1.252951   -2.557355    0.238204
     13          6           0       -1.393492    0.745823   -0.109694
     14          1           0       -1.322050    0.959684   -1.173346
     15          1           0       -1.932755    1.571559    0.344559
     16          6           0       -2.219493   -0.539918    0.090046
     17          1           0       -1.752007   -1.367480   -0.430807
     18          1           0       -2.246337   -0.792189    1.145705
     19          6           0       -3.659234   -0.367276   -0.432937
     20          1           0       -3.654248   -0.126467   -1.490816
     21          1           0       -4.235261   -1.275588   -0.295577
     22          1           0       -4.162517    0.436192    0.094202
     23         17           0        2.644677   -0.235439   -0.454306
 ---------------------------------------------------------------------
 Rotational constants (GHZ):           2.6548767           0.8303703           0.6923980
 Standard basis: 3-21G (6D, 7F)
 There are   106 symmetry adapted cartesian basis functions of A   symmetry.
 There are   106 symmetry adapted basis functions of A   symmetry.
   106 basis functions,   177 primitive gaussians,   106 cartesian basis functions
    37 alpha electrons       37 beta electrons
       nuclear repulsion energy       467.1588422425 Hartrees.
 NAtoms=   23 NActive=   23 NUniq=   23 SFac= 1.00D+00 NAtFMM=   60 NAOKFM=F Big=F
 Integral buffers will be    131072 words long.
 Raffenetti 1 integral format.
 Two-electron integral symmetry is turned on.
 One-electron integrals computed using PRISM.
 NBasis=   106 RedAO= T EigKep=  9.84D-03  NBF=   106
 NBsUse=   106 1.00D-06 EigRej= -1.00D+00 NBFU=   106
 Initial guess from the checkpoint file:  "chiral_with_trees.chk"
 B after Tr=     0.000000    0.000000    0.000000
         Rot=    0.998975    0.043084    0.007479   -0.011690 Ang=   5.19 deg.
 ExpMin= 1.67D-01 ExpMax= 1.38D+03 ExpMxC= 1.38D+03 IAcc=2 IRadAn=         4 AccDes= 0.00D+00
 Harris functional with IExCor=  205 and IRadAn=       4 diagonalized for initial guess.
 HarFok:  IExCor=  205 AccDes= 0.00D+00 IRadAn=         4 IDoV= 1 UseB2=F ITyADJ=14
 ICtDFT=  3500011 ScaDFX=  1.000000  1.000000  1.000000  1.000000
 FoFCou: FMM=F IPFlag=           0 FMFlag=      100000 FMFlg1=           0
         NFxFlg=           0 DoJE=T BraDBF=F KetDBF=T FulRan=T
         wScrn=  0.000000 ICntrl=       500 IOpCl=  0 I1Cent=   200000004 NGrid=           0
         NMat0=    1 NMatS0=      1 NMatT0=    0 NMatD0=    1 NMtDS0=    0 NMtDT0=    0
 Petite list used in FoFCou.
 Keep R1 ints in memory in canonical form, NReq=16954942.
 Requested convergence on RMS density matrix=1.00D-08 within 128 cycles.
 Requested convergence on MAX density matrix=1.00D-06.
 Requested convergence on             energy=1.00D-06.
 No special actions if energy rises.
 SCF Done:  E(RHF) =  -729.599168649     A.U. after   12 cycles
            NFock= 12  Conv=0.79D-08     -V/T= 2.0010
 Calling FoFJK, ICntrl=      2127 FMM=F ISym2X=0 I1Cent= 0 IOpClX= 0 NMat=1 NMatS=1 NMatT=0.
 ***** Axes restored to original set *****
 -------------------------------------------------------------------
 Center     Atomic                   Forces (Hartrees/Bohr)
 Number     Number              X              Y              Z
 -------------------------------------------------------------------
      1        6           0.008653959   -0.001420714    0.001182085
      2        1           0.000551393    0.001527441    0.001136921
      3        6           0.003805142    0.006073763    0.006459502
      4        1           0.000392218    0.000250146    0.000311307
      5        1          -0.000509488    0.001782477    0.000128134
      6        1           0.004600383    0.002617281   -0.000006426
      7        6          -0.036231039   -0.000608414   -0.014731261
      8        1           0.005351384   -0.002110449    0.000850147
      9        6           0.000726137    0.002837682   -0.001648298
     10        1          -0.000081216   -0.000139301    0.000729572
     11        1           0.002959447   -0.000339355    0.000026986
     12        1          -0.000305291   -0.000650633   -0.000383173
     13        6          -0.004315112    0.005353932    0.001412816
     14        1           0.000185908   -0.000108822   -0.000402373
     15        1           0.000153894    0.000809108   -0.000229422
     16        6          -0.002705658   -0.000821845    0.000812534
     17        1          -0.002065974   -0.001057729   -0.000020129
     18        1          -0.000403420   -0.000290133    0.000199821
     19        6           0.000040495   -0.000429855   -0.000010538
     20        1           0.000002494    0.000034275   -0.000038221
     21        1           0.000094468   -0.000033527   -0.000007231
     22        1          -0.000071720    0.000041712    0.000019562
     23       17           0.019171596   -0.013317040    0.004207685
 -------------------------------------------------------------------
 Cartesian Forces:  Max     0.036231039 RMS     0.005921885

 GradGradGradGradGradGradGradGradGradGradGradGradGradGradGradGradGradGrad
 Berny optimization.
 Using GEDIIS/GDIIS optimizer.
 FormGI is forming the generalized inverse of G from B-inverse, IUseBI=4.
 Internal  Forces:  Max     0.020297601 RMS     0.005073173
 Search for a local minimum.
 Step number   2 out of a maximum of  128
 All quantities printed in internal units (Hartrees-Bohrs-Radians)
 Mixed Optimization -- RFO/linear search
 Update second derivatives using D2CorX and points    1    2
 DE= -7.42D-03 DEPred=-2.74D-02 R= 2.71D-01
 Trust test= 2.71D-01 RLast= 3.94D-01 DXMaxT set to 3.00D-01
 ITU=  0  0
 Use linear search instead of GDIIS.
     Eigenvalues ---    0.00230   0.00230   0.00230   0.00230   0.00232
     Eigenvalues ---    0.00236   0.03166   0.03221   0.03583   0.04314
     Eigenvalues ---    0.04642   0.04689   0.04766   0.04791   0.05293
     Eigenvalues ---    0.05333   0.05452   0.05487   0.05510   0.05604
     Eigenvalues ---    0.05644   0.08015   0.08762   0.09280   0.11981
     Eigenvalues ---    0.12525   0.15929   0.15992   0.16000   0.16000
     Eigenvalues ---    0.16000   0.16000   0.16000   0.16000   0.16000
     Eigenvalues ---    0.16194   0.17904   0.20953   0.21911   0.22538
     Eigenvalues ---    0.25158   0.25568   0.27951   0.28143   0.28230
     Eigenvalues ---    0.28358   0.28486   0.35043   0.35114   0.35154
     Eigenvalues ---    0.35212   0.35285   0.35298   0.35312   0.35388
     Eigenvalues ---    0.35391   0.35391   0.35409   0.35410   0.35452
     Eigenvalues ---    0.35568   0.35721   0.42981
 RFO step:  Lambda=-8.51257100D-03 EMin= 2.29886627D-03
 Quartic linear search produced a step of -0.40180.
 Iteration  1 RMS(Cart)=  0.14787590 RMS(Int)=  0.00698207
 Iteration  2 RMS(Cart)=  0.01114563 RMS(Int)=  0.00037296
 Iteration  3 RMS(Cart)=  0.00008568 RMS(Int)=  0.00037083
 Iteration  4 RMS(Cart)=  0.00000003 RMS(Int)=  0.00037083
 Variable       Old X    -DE/DX   Delta X   Delta X   Delta X     New X
                                 (Linear)    (Quad)   (Total)
    R1        2.05192  -0.00067   0.00056  -0.00211  -0.00155   2.05037
    R2        2.93078  -0.00553  -0.00530  -0.00252  -0.00783   2.92296
    R3        2.99071  -0.01985  -0.02121  -0.00695  -0.02816   2.96255
    R4        2.91937   0.00876   0.00066   0.01720   0.01786   2.93723
    R5        2.04875   0.00020   0.00130  -0.00193  -0.00063   2.04812
    R6        2.05042  -0.00099  -0.00011  -0.00146  -0.00156   2.04886
    R7        2.03403   0.00436   0.00639  -0.00393   0.00245   2.03648
    R8        2.04101  -0.00232   0.00431  -0.01140  -0.00709   2.03392
    R9        2.89766   0.00195   0.00756  -0.00873  -0.00118   2.89649
   R10        3.47259   0.02030  -0.05893   0.14075   0.08182   3.55441
   R11        2.04781  -0.00063   0.00106  -0.00290  -0.00185   2.04597
   R12        2.04469  -0.00285   0.00003  -0.00475  -0.00472   2.03997
   R13        2.04717  -0.00081   0.00131  -0.00364  -0.00233   2.04484
   R14        2.05468  -0.00037   0.00011  -0.00080  -0.00070   2.05398
   R15        2.05189  -0.00055   0.00094  -0.00257  -0.00162   2.05027
   R16        2.91245   0.00080  -0.00063   0.00273   0.00209   2.91454
   R17        2.04814  -0.00139  -0.00025  -0.00187  -0.00211   2.04603
   R18        2.05170  -0.00032   0.00001  -0.00054  -0.00054   2.05117
   R19        2.91298   0.00001   0.00026  -0.00041  -0.00015   2.91283
   R20        2.05026  -0.00005   0.00007  -0.00020  -0.00013   2.05013
   R21        2.04903  -0.00008   0.00018  -0.00044  -0.00027   2.04876
   R22        2.04992  -0.00002   0.00009  -0.00019  -0.00010   2.04982
    A1        1.86905   0.00448   0.00737  -0.00505   0.00223   1.87128
    A2        1.87210   0.00261   0.00929  -0.00730   0.00182   1.87392
    A3        1.89409  -0.00341  -0.00115   0.04679   0.04620   1.94029
    A4        2.06730  -0.01837  -0.05841  -0.00285  -0.06117   2.00613
    A5        1.85171   0.00601   0.01836  -0.01508   0.00220   1.85391
    A6        1.90409   0.00914   0.02599  -0.01026   0.01466   1.91875
    A7        1.93169   0.00057  -0.00342   0.00485   0.00154   1.93323
    A8        1.90523  -0.00139   0.01285  -0.01876  -0.00596   1.89927
    A9        1.96557  -0.00303  -0.01230   0.00430  -0.00798   1.95760
   A10        1.88744   0.00093   0.00057   0.00839   0.00899   1.89643
   A11        1.89216   0.00060  -0.00125  -0.00578  -0.00686   1.88529
   A12        1.87951   0.00253   0.00385   0.00746   0.01119   1.89070
   A13        1.89271   0.00138   0.00658   0.02177   0.02735   1.92006
   A14        1.93386   0.01065   0.02108  -0.01075   0.00873   1.94259
   A15        2.06336  -0.01963  -0.06472  -0.00384  -0.06869   1.99467
   A16        1.91036  -0.00131   0.00318   0.05501   0.05755   1.96791
   A17        1.82716   0.00207   0.01390  -0.02937  -0.01417   1.81299
   A18        1.83010   0.00705   0.02078  -0.02828  -0.00873   1.82137
   A19        1.91622  -0.00066   0.00219  -0.00653  -0.00434   1.91188
   A20        1.93487   0.00102   0.00562  -0.00381   0.00183   1.93671
   A21        1.92864  -0.00013   0.00139  -0.00245  -0.00106   1.92758
   A22        1.89559  -0.00025  -0.00372   0.00443   0.00073   1.89631
   A23        1.89156   0.00015  -0.00252   0.00258   0.00005   1.89160
   A24        1.89607  -0.00014  -0.00335   0.00617   0.00283   1.89890
   A25        1.89438  -0.00391  -0.00043  -0.00473  -0.00537   1.88900
   A26        1.88244  -0.00440   0.00290  -0.01751  -0.01450   1.86795
   A27        2.02064   0.01364  -0.00135   0.04083   0.03945   2.06009
   A28        1.86744   0.00211  -0.00017  -0.00354  -0.00386   1.86358
   A29        1.90296  -0.00370  -0.00018  -0.00478  -0.00518   1.89778
   A30        1.89023  -0.00439  -0.00067  -0.01336  -0.01391   1.87633
   A31        1.92148   0.00121  -0.00082   0.00688   0.00604   1.92752
   A32        1.91039   0.00040  -0.00004   0.00173   0.00167   1.91206
   A33        1.94246  -0.00121   0.00039  -0.00493  -0.00454   1.93793
   A34        1.87603   0.00016  -0.00001   0.00393   0.00389   1.87992
   A35        1.90216  -0.00061   0.00056  -0.00557  -0.00500   1.89716
   A36        1.91008   0.00009  -0.00009  -0.00179  -0.00188   1.90820
   A37        1.92983   0.00000  -0.00017   0.00023   0.00006   1.92990
   A38        1.93840  -0.00012   0.00025  -0.00085  -0.00060   1.93780
   A39        1.92988   0.00013   0.00017   0.00030   0.00047   1.93035
   A40        1.88798   0.00003  -0.00007   0.00005  -0.00002   1.88796
   A41        1.88762  -0.00003  -0.00012   0.00020   0.00008   1.88770
   A42        1.88855  -0.00002  -0.00008   0.00009   0.00001   1.88856
    D1       -3.14048  -0.00242  -0.00975   0.03748   0.02771  -3.11277
    D2       -1.06505  -0.00181  -0.00304   0.03903   0.03596  -1.02909
    D3        1.02155  -0.00149   0.00241   0.03844   0.04094   1.06250
    D4        1.02545   0.00308   0.00991   0.05330   0.06349   1.08894
    D5        3.10088   0.00370   0.01662   0.05485   0.07174  -3.11056
    D6       -1.09570   0.00402   0.02207   0.05426   0.07672  -1.01898
    D7       -1.12005  -0.00135   0.00207   0.08150   0.08320  -1.03685
    D8        0.95538  -0.00073   0.00877   0.08305   0.09145   1.04683
    D9        3.04198  -0.00041   0.01422   0.08247   0.09643   3.13841
   D10        2.51208   0.00593   0.01846  -0.07602  -0.05758   2.45449
   D11        0.41503   0.00020  -0.00399  -0.15093  -0.15473   0.26030
   D12       -1.69698  -0.00351   0.00049  -0.10008  -0.10046  -1.79744
   D13       -1.65540   0.00133  -0.00252  -0.09072  -0.09328  -1.74869
   D14        2.53074  -0.00439  -0.02496  -0.16563  -0.19043   2.34030
   D15        0.41873  -0.00811  -0.02049  -0.11478  -0.13616   0.28256
   D16        0.46369   0.00369  -0.00090  -0.12193  -0.12212   0.34157
   D17       -1.63336  -0.00204  -0.02334  -0.19684  -0.21927  -1.85263
   D18        2.53782  -0.00575  -0.01887  -0.14599  -0.16500   2.37282
   D19        3.12454  -0.00101  -0.00159  -0.00687  -0.00860   3.11595
   D20        1.10709   0.00085  -0.00269   0.00895   0.00608   1.11317
   D21       -1.01281   0.00073  -0.00312   0.01217   0.00896  -1.00384
   D22        1.12115  -0.00759  -0.01926  -0.01557  -0.03520   1.08595
   D23       -0.89630  -0.00573  -0.02037   0.00025  -0.02053  -0.91683
   D24       -3.01620  -0.00585  -0.02080   0.00347  -0.01764  -3.03384
   D25       -1.12421   0.00522   0.02430   0.00476   0.02955  -1.09466
   D26        3.14152   0.00708   0.02320   0.02058   0.04422  -3.09744
   D27        1.02163   0.00696   0.02276   0.02380   0.04711   1.06873
   D28       -1.12175   0.00646   0.02567   0.01775   0.04387  -1.07787
   D29        0.97271   0.00637   0.02608   0.01661   0.04313   1.01584
   D30        3.07591   0.00678   0.02653   0.02023   0.04721   3.12312
   D31        3.07495  -0.00103   0.00100  -0.03754  -0.03703   3.03793
   D32       -1.11377  -0.00112   0.00141  -0.03868  -0.03777  -1.15154
   D33        0.98943  -0.00071   0.00186  -0.03506  -0.03370   0.95573
   D34        1.12307  -0.00627  -0.02755  -0.01370  -0.04120   1.08188
   D35       -3.06565  -0.00636  -0.02715  -0.01484  -0.04194  -3.10759
   D36       -0.96245  -0.00595  -0.02669  -0.01121  -0.03787  -1.00032
   D37       -1.11557  -0.00143   0.00181  -0.02832  -0.02658  -1.14215
   D38        0.94293  -0.00028   0.00128  -0.01841  -0.01717   0.92576
   D39        3.05653  -0.00068   0.00139  -0.02269  -0.02134   3.03519
   D40        1.02573   0.00028   0.00013  -0.00899  -0.00887   1.01686
   D41        3.08424   0.00143  -0.00040   0.00092   0.00054   3.08477
   D42       -1.08535   0.00103  -0.00029  -0.00336  -0.00363  -1.08898
   D43        3.05189  -0.00160  -0.00053  -0.02306  -0.02356   3.02833
   D44       -1.17279  -0.00045  -0.00106  -0.01314  -0.01416  -1.18695
   D45        0.94080  -0.00086  -0.00095  -0.01742  -0.01832   0.92248
   D46        1.03997   0.00021  -0.00021   0.00155   0.00134   1.04132
   D47        3.13612   0.00017  -0.00024   0.00121   0.00097   3.13709
   D48       -1.05017   0.00016  -0.00007   0.00096   0.00090  -1.04927
   D49       -1.08240  -0.00012   0.00019  -0.00016   0.00002  -1.08237
   D50        1.01375  -0.00015   0.00015  -0.00050  -0.00036   1.01339
   D51        3.11064  -0.00017   0.00033  -0.00075  -0.00042   3.11022
   D52       -3.12943  -0.00001  -0.00007  -0.00067  -0.00073  -3.13016
   D53       -1.03328  -0.00005  -0.00010  -0.00101  -0.00111  -1.03440
   D54        1.06361  -0.00006   0.00008  -0.00126  -0.00118   1.06243
         Item               Value     Threshold  Converged?
 Maximum Force            0.020298     0.000450     NO 
 RMS     Force            0.005073     0.000300     NO 
 Maximum Displacement     0.584178     0.001800     NO 
 RMS     Displacement     0.152922     0.001200     NO 
 Predicted change in Energy=-4.662679D-03
 GradGradGradGradGradGradGradGradGradGradGradGradGradGradGradGradGradGrad

                          Input orientation:                          
 ---------------------------------------------------------------------
 Center     Atomic      Atomic             Coordinates (Angstroms)
 Number     Number       Type             X           Y           Z
 ---------------------------------------------------------------------
      1          6           0        0.837747   -0.499589   -0.302253
      2          1           0        0.935945   -0.215973   -1.344926
      3          6           0        1.532943   -1.870962   -0.133401
      4          1           0        1.443413   -2.224081    0.887361
      5          1           0        1.055914   -2.588335   -0.791678
      6          1           0        2.580967   -1.828657   -0.380799
      7          6           0        1.447134    0.660895    0.557777
      8          1           0        0.846610    0.822827    1.436170
      9          6           0        1.633046    1.933470   -0.276083
     10          1           0        2.326306    1.738646   -1.084555
     11          1           0        0.694245    2.259757   -0.697416
     12          1           0        2.036645    2.730103    0.334973
     13          6           0       -0.652374   -0.717932    0.082141
     14          1           0       -0.693378   -1.024363    1.124163
     15          1           0       -1.012410   -1.556137   -0.505153
     16          6           0       -1.634452    0.452380   -0.129067
     17          1           0       -1.384100    1.278651    0.524284
     18          1           0       -1.562295    0.806989   -1.152397
     19          6           0       -3.084642    0.016535    0.158882
     20          1           0       -3.182205   -0.331391    1.181818
     21          1           0       -3.774379    0.840482    0.014750
     22          1           0       -3.378822   -0.791360   -0.502464
     23         17           0        3.160648    0.298081    1.243393
 ---------------------------------------------------------------------
                    Distance matrix (angstroms):
                    1          2          3          4          5
     1  C    0.000000
     2  H    1.085011   0.000000
     3  C    1.546762   2.136163   0.000000
     4  H    2.180799   3.045181   1.083819   0.000000
     5  H    2.156385   2.438971   1.084209   1.761252   0.000000
     6  H    2.193492   2.497276   1.077659   1.748891   1.752632
     7  C    1.567714   2.156499   2.625908   2.903743   3.539997
     8  H    2.184256   2.970114   3.192351   3.152936   4.079600
     9  C    2.559876   2.499696   3.808423   4.321434   4.587553
    10  H    2.799553   2.412764   3.816201   4.513441   4.519119
    11  H    2.791189   2.570394   4.252572   4.814309   4.862477
    12  H    3.503473   3.565525   4.652192   5.020059   5.524216
    13  C    1.554314   2.193455   2.480231   2.703550   2.679593
    14  H    2.157405   3.066691   2.693456   2.461965   3.029271
    15  H    2.140220   2.509452   2.591551   2.901088   2.329269
    16  C    2.654808   2.920951   3.928146   4.203548   4.113766
    17  H    2.963428   3.333235   4.343012   4.516169   4.758046
    18  H    2.861834   2.706423   4.217853   4.730991   4.302717
    19  C    3.982984   4.298909   4.997016   5.104343   4.983284
    20  H    4.288446   4.832900   5.131540   5.006527   5.191352
    21  H    4.813314   5.015175   5.961673   6.113783   5.978198
    22  H    4.231391   4.433738   5.042538   5.219027   4.793709
    23  Cl   2.901926   3.451515   3.041338   3.071963   4.111304
                    6          7          8          9         10
     6  H    0.000000
     7  C    2.892122   0.000000
     8  H    3.652360   1.076302   0.000000
     9  C    3.881124   1.532754   2.187195   0.000000
    10  H    3.644966   2.152149   3.063050   1.082679   0.000000
    11  H    4.513878   2.167651   2.576853   1.079505   1.756433
    12  H    4.646602   2.163050   2.503302   1.082084   1.755549
    13  C    3.450003   2.556429   2.540528   3.518722   4.033421
    14  H    3.692308   2.782567   2.425082   4.015186   4.650930
    15  H    3.605842   3.477701   3.589451   4.385005   4.726344
    16  C    4.799610   3.164081   2.956834   3.590513   4.272592
    17  H    5.118232   2.898040   2.452628   3.189443   4.070267
    18  H    4.970777   3.464492   3.536065   3.499584   3.999226
    19  C    5.982902   4.594704   4.211450   5.110813   5.812930
    20  H    6.156113   4.775441   4.198603   5.517401   6.305965
    21  H    6.904433   5.252745   4.834697   5.524442   6.263668
    22  H    6.050610   5.150049   4.921197   5.709183   6.268034
    23  Cl   2.738073   1.880913   2.380608   2.704973   2.861939
[...]
     7  C    1.539782   2.141581   2.577678   2.803581   3.499648
     8  H    2.174135   3.027146   2.982965   2.816803   3.899950
     9  C    2.586938   2.629976   3.901862   4.295773   4.705528
    10  H    2.830292   2.471820   4.046664   4.654740   4.772245
    11  H    2.849720   2.850073   4.341684   4.738312   4.991664
    12  H    3.512399   3.663844   4.685903   4.924769   5.586346
    13  C    1.556571   2.169374   2.491682   2.768249   2.645577
    14  H    2.159080   3.049946   2.704084   2.532375   2.960056
    15  H    2.134975   2.480223   2.598498   2.991773   2.287211
    16  C    2.659978   2.886206   3.937462   4.257521   4.092743
    17  H    3.008174   3.358534   4.375057   4.555965   4.753379
    18  H    2.840672   2.643398   4.214093   4.764689   4.315898
    19  C    3.977784   4.231971   4.995316   5.191620   4.911370
    20  H    4.295783   4.782431   5.132502   5.101963   5.084730
    21  H    4.812657   4.956469   5.962948   6.191682   5.921677
    22  H    4.203098   4.328032   5.028016   5.323534   4.712839
    23  Cl   2.872845   3.271578   3.030553   3.145094   4.085809
                    6          7          8          9         10
     6  H    0.000000
     7  C    2.881258   0.000000
     8  H    3.453829   1.076465   0.000000
     9  C    4.088938   1.526161   2.179883   0.000000
    10  H    4.029078   2.147803   3.056268   1.081980   0.000000
    11  H    4.731805   2.157689   2.579666   1.080182   1.757012
    12  H    4.785355   2.157555   2.480375   1.081204   1.756339
    13  C    3.453578   2.543681   2.658490   3.366918   3.848070
    14  H    3.725116   2.771380   2.463331   3.818442   4.489993
    15  H    3.581350   3.454634   3.660474   4.287746   4.596123
    16  C    4.795074   3.178703   3.271747   3.334022   3.864497
    17  H    5.165882   2.973933   2.869144   2.910118   3.660421
    18  H    4.924853   3.426048   3.811655   3.243817   3.496598
    19  C    5.963773   4.628088   4.545861   4.847354   5.391231
    20  H    6.163523   4.843057   4.528437   5.268742   5.954234
    21  H    6.887356   5.292436   5.216782   5.234152   5.766345
    22  H    5.993770   5.150383   5.195392   5.466323   5.860681
    23  Cl   2.661360   1.928553   2.390460   2.732091   2.885526
                   11         12         13         14         15
    11  H    0.000000
    12  H    1.756366   0.000000
    13  C    3.133892   4.266832   0.000000
    14  H    3.651369   4.537855   1.086735   0.000000
    15  H    4.054931   5.250790   1.085527   1.742893   0.000000
    16  C    2.629082   4.184469   1.541736   2.157173   2.135837
    17  H    2.097859   3.550928   2.173024   2.457431   3.035927
    18  H    2.487542   4.183665   2.165164   3.050462   2.542179
    19  C    4.064582   5.632588   2.536677   2.814044   2.646997
    20  H    4.568556   5.952743   2.772701   2.614795   2.939654
    21  H    4.304222   5.938614   3.485533   3.789745   3.667587
    22  H    4.759051   6.355605   2.789806   3.205335   2.456600
    23  Cl   3.731697   2.843666   4.223724   4.329115   4.947544
                   16         17         18         19         20
    16  C    0.000000
    17  H    1.082816   0.000000
    18  H    1.085257   1.751230   0.000000
    19  C    1.542296   2.148471   2.160749   0.000000
    20  H    2.175235   2.504938   3.062037   1.084879   0.000000
    21  H    2.179563   2.476889   2.506735   1.084159   1.756676
    22  H    2.175417   3.052050   2.502640   1.084563   1.757347
    23  Cl   5.080166   4.891823   5.239955   6.513111   6.672431
                   21         22         23
    21  H    0.000000
    22  H    1.757056   0.000000
    23  Cl   7.215631   6.953576   0.000000
 Stoichiometry    C7H15Cl
 Framework group  C1[X(C7H15Cl)]
 Deg. of freedom    63
 Full point group                 C1      NOp   1
 Largest Abelian subgroup         C1      NOp   1
 Largest concise Abelian subgroup C1      NOp   1
                         Standard orientation:                         
 ---------------------------------------------------------------------
 Center     Atomic      Atomic             Coordinates (Angstroms)
 Number     Number       Type             X           Y           Z
 ---------------------------------------------------------------------
      1          6           0        0.044214    0.634728    0.433767
      2          1           0        0.015304    0.419142    1.496535
      3          6           0        0.660666    2.035505    0.229986
      4          1           0        0.760849    2.255996   -0.827048
      5          1           0        0.011726    2.781147    0.674948
      6          1           0        1.634726    2.111615    0.686964
      7          6           0        0.834926   -0.488913   -0.261312
      8          1           0        0.627212   -0.514607   -1.317235
      9          6           0        0.718362   -1.862501    0.393543
     10          1           0        1.076203   -1.811884    1.413380
     11          1           0       -0.310061   -2.192720    0.403268
     12          1           0        1.311036   -2.589984   -0.143585
     13          6           0       -1.411488    0.695263   -0.114120
     14          1           0       -1.365874    0.926019   -1.175093
     15          1           0       -1.886899    1.542907    0.369465
     16          6           0       -2.323313   -0.529966    0.096446
     17          1           0       -1.997494   -1.357187   -0.521645
     18          1           0       -2.274014   -0.851145    1.131916
     19          6           0       -3.783545   -0.190751   -0.265952
     20          1           0       -3.854579    0.133432   -1.298823
     21          1           0       -4.425720   -1.054817   -0.137888
     22          1           0       -4.158247    0.607038    0.366035
     23         17           0        2.729229   -0.127361   -0.246785
 ---------------------------------------------------------------------
 Rotational constants (GHZ):           2.9573988           0.7976230           0.6637294

 **********************************************************************

            Population analysis using the SCF density.

 **********************************************************************

 Orbital symmetries:
       Occupied  (A) (A) (A) (A) (A) (A) (A) (A) (A) (A) (A) (A)
                 (A) (A) (A) (A) (A) (A) (A) (A) (A) (A) (A) (A)
                 (A) (A) (A) (A) (A) (A) (A) (A) (A) (A) (A) (A)
                 (A)
       Virtual   (A) (A) (A) (A) (A) (A) (A) (A) (A) (A) (A) (A)
                 (A) (A) (A) (A) (A) (A) (A) (A) (A) (A) (A) (A)
                 (A) (A) (A) (A) (A) (A) (A) (A) (A) (A) (A) (A)
                 (A) (A) (A) (A) (A) (A) (A) (A) (A) (A) (A) (A)
                 (A) (A) (A) (A) (A) (A) (A) (A) (A) (A) (A) (A)
                 (A) (A) (A) (A) (A) (A) (A) (A) (A)
 The electronic state is 1-A.
 Alpha  occ. eigenvalues -- -104.06883 -11.25508 -11.19235 -11.17596 -11.17338
 Alpha  occ. eigenvalues --  -11.17257 -11.16164 -11.15526 -10.46028  -7.92377
 Alpha  occ. eigenvalues --   -7.92035  -7.92026  -1.14459  -1.08092  -1.03032
 Alpha  occ. eigenvalues --   -0.99741  -0.93052  -0.87424  -0.82269  -0.78395
 Alpha  occ. eigenvalues --   -0.66044  -0.64380  -0.61408  -0.60163  -0.59340
 Alpha  occ. eigenvalues --   -0.56045  -0.55507  -0.53877  -0.53667  -0.50615
 Alpha  occ. eigenvalues --   -0.49358  -0.48495  -0.47458  -0.46177  -0.43532
 Alpha  occ. eigenvalues --   -0.41731  -0.41561
 Alpha virt. eigenvalues --    0.16979   0.25060   0.27210   0.27506   0.28006
 Alpha virt. eigenvalues --    0.31164   0.31903   0.32433   0.33728   0.34121
 Alpha virt. eigenvalues --    0.34780   0.35804   0.36296   0.37447   0.38512
 Alpha virt. eigenvalues --    0.39796   0.42822   0.43439   0.44401   0.46047
 Alpha virt. eigenvalues --    0.46589   0.49216   0.74279   0.81119   0.83921
 Alpha virt. eigenvalues --    0.84707   0.87920   0.89094   0.89972   0.92383
 Alpha virt. eigenvalues --    0.96136   0.97183   0.99791   1.01532   1.03700
 Alpha virt. eigenvalues --    1.06418   1.07239   1.10520   1.12070   1.16931
 Alpha virt. eigenvalues --    1.17888   1.21720   1.24237   1.24780   1.29824
 Alpha virt. eigenvalues --    1.33362   1.35822   1.35962   1.36848   1.37145
 Alpha virt. eigenvalues --    1.37897   1.38985   1.40422   1.40785   1.42327
 Alpha virt. eigenvalues --    1.44638   1.46969   1.48094   1.49804   1.54581
 Alpha virt. eigenvalues --    1.57486   1.67429   1.86081   2.00945   2.16734
 Alpha virt. eigenvalues --    2.24635   2.34579   2.53981   2.73896
          Condensed to atoms (all electrons):
               1          2          3          4          5          6
     1  C    5.666783   0.396800   0.262798  -0.048135  -0.045568  -0.037527
     2  H    0.396800   0.492186  -0.038034   0.002930  -0.001556  -0.001452
     3  C    0.262798  -0.038034   5.357663   0.378397   0.377556   0.384510
     4  H   -0.048135   0.002930   0.378397   0.509660  -0.026028  -0.023116
     5  H   -0.045568  -0.001556   0.377556  -0.026028   0.516709  -0.024383
     6  H   -0.037527  -0.001452   0.384510  -0.023116  -0.024383   0.463136
     7  C    0.179341  -0.050855  -0.065136  -0.001457   0.003764  -0.002505
     8  H   -0.043155   0.002775   0.001271   0.001029  -0.000069   0.000060
     9  C   -0.066735  -0.002152   0.002712  -0.000001  -0.000049   0.000004
    10  H   -0.001467   0.002512  -0.000056   0.000001  -0.000001   0.000011
    11  H    0.000335   0.000116  -0.000021  -0.000000  -0.000000  -0.000001
    12  H    0.003222   0.000046  -0.000052   0.000001   0.000000   0.000000
    13  C    0.243834  -0.040390  -0.091047  -0.000804  -0.002675   0.003349
    14  H   -0.048427   0.003076  -0.000045   0.002337   0.000067  -0.000027
    15  H   -0.046588  -0.001372  -0.003229   0.000069   0.002620   0.000055
    16  C   -0.053047  -0.000914   0.003237  -0.000047   0.000030  -0.000048
    17  H   -0.000908   0.000041  -0.000053   0.000003  -0.000001   0.000001
    18  H   -0.000851   0.002042  -0.000015   0.000001   0.000003   0.000001
    19  C    0.003155  -0.000034  -0.000073   0.000000  -0.000005   0.000000
    20  H   -0.000019   0.000001  -0.000000  -0.000000   0.000000   0.000000
    21  H   -0.000051   0.000000   0.000000   0.000000   0.000000  -0.000000
    22  H   -0.000055   0.000004  -0.000002   0.000000  -0.000001   0.000000
    23  Cl  -0.061660   0.001921  -0.015637  -0.000232   0.000510  -0.002358
               7          8          9         10         11         12
     1  C    0.179341  -0.043155  -0.066735  -0.001467   0.000335   0.003222
     2  H   -0.050855   0.002775  -0.002152   0.002512   0.000116   0.000046
     3  C   -0.065136   0.001271   0.002712  -0.000056  -0.000021  -0.000052
     4  H   -0.001457   0.001029  -0.000001   0.000001  -0.000000   0.000001
     5  H    0.003764  -0.000069  -0.000049  -0.000001  -0.000000   0.000000
     6  H   -0.002505   0.000060   0.000004   0.000011  -0.000001   0.000000
     7  C    5.688320   0.375254   0.208531  -0.047882  -0.040925  -0.043466
     8  H    0.375254   0.462355  -0.035201   0.002692  -0.000499  -0.001576
     9  C    0.208531  -0.035201   5.437295   0.379108   0.363775   0.381967
    10  H   -0.047882   0.002692   0.379108   0.478697  -0.022517  -0.022196
    11  H   -0.040925  -0.000499   0.363775  -0.022517   0.488168  -0.022459
    12  H   -0.043466  -0.001576   0.381967  -0.022196  -0.022459   0.470535
    13  C   -0.079183  -0.001900   0.003583   0.000114  -0.000394  -0.000098
    14  H   -0.002219   0.002834   0.000091   0.000001   0.000016   0.000002
    15  H    0.003736   0.000020  -0.000134   0.000001   0.000017   0.000001
    16  C    0.001890   0.000142  -0.004118   0.000056  -0.000937   0.000052
    17  H    0.000978   0.000287  -0.002378   0.000050   0.001485   0.000060
    18  H   -0.000197   0.000041  -0.000077   0.000018   0.000119   0.000009
    19  C   -0.000082  -0.000024   0.000089  -0.000001   0.000101  -0.000001
    20  H    0.000001  -0.000001  -0.000001  -0.000000  -0.000002   0.000000
    21  H    0.000001   0.000000   0.000001   0.000000  -0.000006   0.000000
    22  H    0.000001   0.000000  -0.000002   0.000000  -0.000001   0.000000
    23  Cl   0.218760  -0.043610  -0.089774  -0.000722   0.003625  -0.001184
              13         14         15         16         17         18
     1  C    0.243834  -0.048427  -0.046588  -0.053047  -0.000908  -0.000851
     2  H   -0.040390   0.003076  -0.001372  -0.000914   0.000041   0.002042
     3  C   -0.091047  -0.000045  -0.003229   0.003237  -0.000053  -0.000015
     4  H   -0.000804   0.002337   0.000069  -0.000047   0.000003   0.000001
     5  H   -0.002675   0.000067   0.002620   0.000030  -0.000001   0.000003
     6  H    0.003349  -0.000027   0.000055  -0.000048   0.000001   0.000001
     7  C   -0.079183  -0.002219   0.003736   0.001890   0.000978  -0.000197
     8  H   -0.001900   0.002834   0.000020   0.000142   0.000287   0.000041
     9  C    0.003583   0.000091  -0.000134  -0.004118  -0.002378  -0.000077
    10  H    0.000114   0.000001   0.000001   0.000056   0.000050   0.000018
    11  H   -0.000394   0.000016   0.000017  -0.000937   0.001485   0.000119
    12  H   -0.000098   0.000002   0.000001   0.000052   0.000060   0.000009
    13  C    5.475795   0.381320   0.392412   0.243102  -0.043409  -0.046841
    14  H    0.381320   0.522336  -0.025747  -0.045786  -0.002560   0.003210
    15  H    0.392412  -0.025747   0.505261  -0.048918   0.003171  -0.001135
    16  C    0.243102  -0.045786  -0.048918   5.458299   0.383990   0.386691
    17  H   -0.043409  -0.002560   0.003171   0.383990   0.523756  -0.028582
    18  H   -0.046841   0.003210  -0.001135   0.386691  -0.028582   0.518392
    19  C   -0.081075  -0.000055  -0.002554   0.254031  -0.044246  -0.041572
    20  H   -0.001259   0.002102   0.000041  -0.045353  -0.001846   0.003054
    21  H    0.003512  -0.000054   0.000026  -0.040348  -0.001329  -0.001470
    22  H   -0.001662   0.000021   0.003082  -0.044943   0.003130  -0.001947
    23  Cl   0.002885  -0.000087  -0.000047  -0.000039   0.000008  -0.000006
              19         20         21         22         23
     1  C    0.003155  -0.000019  -0.000051  -0.000055  -0.061660
     2  H   -0.000034   0.000001   0.000000   0.000004   0.001921
     3  C   -0.000073  -0.000000   0.000000  -0.000002  -0.015637
     4  H    0.000000  -0.000000   0.000000   0.000000  -0.000232
     5  H   -0.000005   0.000000   0.000000  -0.000001   0.000510
     6  H    0.000000   0.000000  -0.000000   0.000000  -0.002358
     7  C   -0.000082   0.000001   0.000001   0.000001   0.218760
     8  H   -0.000024  -0.000001   0.000000   0.000000  -0.043610
     9  C    0.000089  -0.000001   0.000001  -0.000002  -0.089774
    10  H   -0.000001  -0.000000   0.000000   0.000000  -0.000722
    11  H    0.000101  -0.000002  -0.000006  -0.000001   0.003625
    12  H   -0.000001   0.000000   0.000000   0.000000  -0.001184
    13  C   -0.081075  -0.001259   0.003512  -0.001662   0.002885
    14  H   -0.000055   0.002102  -0.000054   0.000021  -0.000087
    15  H   -0.002554   0.000041   0.000026   0.003082  -0.000047
    16  C    0.254031  -0.045353  -0.040348  -0.044943  -0.000039
    17  H   -0.044246  -0.001846  -0.001329   0.003130   0.000008
    18  H   -0.041572   0.003054  -0.001470  -0.001947  -0.000006
    19  C    5.355132   0.377390   0.381398   0.377026   0.000000
    20  H    0.377390   0.517296  -0.025891  -0.026912  -0.000000
    21  H    0.381398  -0.025891   0.505088  -0.025549  -0.000000
    22  H    0.377026  -0.026912  -0.025549   0.516427   0.000000
    23  Cl   0.000000  -0.000000  -0.000000   0.000000  17.125618
 Mulliken charges:
               1
     1  C   -0.302077
     2  H    0.232312
     3  C   -0.554743
     4  H    0.205393
     5  H    0.199076
     6  H    0.240290
     7  C   -0.346671
     8  H    0.277274
     9  C   -0.576535
    10  H    0.231579
    11  H    0.230003
    12  H    0.235137
    13  C   -0.359170
    14  H    0.207595
    15  H    0.219213
    16  C   -0.447022
    17  H    0.208352
    18  H    0.209112
    19  C   -0.578602
    20  H    0.201399
    21  H    0.204672
    22  H    0.201382
    23  Cl  -0.137970
 Sum of Mulliken charges =   0.00000
 Mulliken charges with hydrogens summed into heavy atoms:
               1
     1  C   -0.069766
     3  C    0.090015
     7  C   -0.069397
     9  C    0.120185
    13  C    0.067638
    16  C   -0.029558
    19  C    0.028852
    23  Cl  -0.137970
 Electronic spatial extent (au):  <R**2>=           1752.7253
 Charge=              0.0000 electrons
 Dipole moment (field-independent basis, Debye):
    X=             -3.4755    Y=             -0.4190    Z=              0.2398  Tot=              3.5088
 Quadrupole moment (field-independent basis, Debye-Ang):
   XX=            -71.2426   YY=            -59.1004   ZZ=            -59.9409
   XY=             -0.0173   XZ=              0.9286   YZ=              0.3189
 Traceless Quadrupole moment (field-independent basis, Debye-Ang):
   XX=             -7.8147   YY=              4.3276   ZZ=              3.4871
   XY=             -0.0173   XZ=              0.9286   YZ=              0.3189
 Octapole moment (field-independent basis, Debye-Ang**2):
  XXX=            -21.1618  YYY=             -3.2505  ZZZ=             -1.1564  XYY=              3.2857
  XXY=              1.1364  XXZ=              4.1989  XZZ=              2.1479  YZZ=             -0.3417
  YYZ=              0.6390  XYZ=             -0.2596
 Hexadecapole moment (field-independent basis, Debye-Ang**3):
 XXXX=          -1797.1210 YYYY=           -520.9060 ZZZZ=           -132.6563 XXXY=             12.7278
 XXXZ=              3.6710 YYYX=             -5.1664 YYYZ=              4.5408 ZZZX=              0.7949
 ZZZY=             -2.8191 XXYY=           -368.3566 XXZZ=           -313.3378 YYZZ=           -109.6547
 XXYZ=              2.5379 YYXZ=             -2.9777 ZZXY=             -2.3725
 N-N= 4.658550020142D+02 E-N=-2.653255567336D+03  KE= 7.288079627255D+02
 1\1\GINC-TOTEM3\FOpt\RHF\3-21G\C7H15Cl1\JRAMOS\17-Sep-2025\0\\# opt hf
 /3-21g geom=connectivity\\Title Card Required\\0,1\C,0.8689785784,-0.5
 5837359,-0.2844706168\H,0.9401401201,-0.3270316574,-1.3419232393\C,1.5
 262623152,-1.9327059131,-0.0336650658\H,1.5267352659,-2.1656012964,1.0
 254542174\H,0.9626954017,-2.6998223639,-0.5523380538\H,2.544896384,-1.
 9568399719,-0.3875235383\C,1.5297107131,0.5886872839,0.5020491306\H,1.
 212812801,0.5876594782,1.5308115895\C,1.417051873,1.9660218831,-0.1455
 807469\H,1.8805402802,1.9484155239,-1.1231022556\H,0.3807665038,2.2490
 958917,-0.258602731\H,1.9160304433,2.7109309381,0.4586809082\C,-0.6311
 53584,-0.6941778254,0.1080510082\H,-0.6848203001,-0.9398797793,1.16528
 47177\H,-1.013517414,-1.5546297448,-0.4321246508\C,-1.5729296564,0.491
 4491707,-0.1822886754\H,-1.352151539,1.3224849696,0.4758346135\H,-1.43
 186231,0.8313822818,-1.203233696\C,-3.045241542,0.0801091483,0.0220965
 654\H,-3.2074925355,-0.263773992,1.0381585\H,-3.7106598221,0.915953320
 7,-0.1622477519\H,-3.314531847,-0.7235330485,-0.6546004915\Cl,3.430244
 6207,0.3142134429,0.6807988126\\Version=ES64L-G16RevA.03\State=1-A\HF=
 -729.6067611\RMSD=9.173e-09\RMSF=2.000e-06\Dipole=-1.3564705,0.1038188
 ,-0.2343662\Quadrupole=-5.5568222,3.1929838,2.3638384,-0.4073504,-1.55
 60187,0.173894\PG=C01 [X(C7H15Cl1)]\\@


 EVANS BOLDLY PUT 50 ATM. OF ETHYLENE IN A CELL WITH 25 ATM. OF OXYGEN.
 THE APPARATUS SUBSEQUENTLY BLEW UP, BUT LUCKILY NOT BEFORE HE
 OBTAINED THE SPECTRA SHOWN IN FIGURE 8.
 A.J.MERER AND R.S.MULLIKEN, CHEM.REV. 69, 645 (1969)
 Job cpu time:       0 days  0 hours  0 minutes 33.9 seconds.
 Elapsed time:       0 days  0 hours  0 minutes 32.6 seconds.
 File lengths (MBytes):  RWF=     10 Int=      0 D2E=      0 Chk=      3 Scr=      1
 Normal termination of Gaussian 16 at Wed Sep 17 16:02:22 2025.
